# vtk DataFile Version 3.0
Happy Go Lucky
ASCII
DATASET POLYDATA
POINTS 3856 float
-0.393324 -1.00352 -1.00496
-0.223432 -1.01525 -1.0571
-0.140037 -1.0135 -1.0052
-0.0376899 -1.01023 -1.05845
0.0558345 -1.01583 -1.03208
0.186063 -1.01588 -1.05625
0.193373 -0.947159 -0.99943
-0.000363875 -0.88112 -1.00061
-0.557546 -1.01371 -0.925216
-0.450194 -1.01474 -0.930124
-0.302264 -1.01437 -0.980546
-0.216247 -1.01812 -0.94244
-0.127683 -1.01927 -0.910128
-0.0506686 -1.0162 -0.964274
0.050432 -1.01802 -0.922016
0.131184 -1.01591 -0.974009
0.225275 -1.01818 -0.961346
0.319386 -1.01477 -0.980165
0.459736 -1.01513 -0.921428
0.55581 -1.01536 -0.920572
-0.364854 -0.9801 -0.917947
-0.231617 -0.94927 -0.995086
-0.163262 -0.943951 -0.939139
0.00481989 -0.920415 -0.90831
-0.0753622 -0.946398 -0.904354
0.0156072 -0.957711 -0.977886
0.149982 -0.94143 -0.92641
0.390386 -0.962918 -0.955398
-0.383225 -0.883018 -0.92555
-0.19427 -0.878174 -0.981412
0.000118491 -0.838457 -0.904821
0.195233 -0.872602 -0.97899
0.385325 -0.878729 -0.927973
-0.37533 -0.687892 -0.906127
-0.191341 -0.687892 -0.961939
-3.50083e-25 -0.687892 -0.980785
0.191342 -0.687892 -0.96194
0.37533 -0.687892 -0.906127
-0.18024 -0.500294 -0.906127
0 -0.500294 -0.923879
0.18024 -0.500294 -0.906127
-0.499381 -1.01637 -0.851775
-0.399411 -1.01917 -0.843433
-0.292347 -1.01899 -0.883395
-0.203347 -1.0165 -0.848901
-0.113608 -1.02214 -0.818919
-0.0317967 -1.01741 -0.871292
0.0539041 -1.02002 -0.82712
0.147818 -1.01875 -0.878724
0.283435 -1.01915 -0.888694
0.225424 -1.01719 -0.815731
0.373549 -1.01388 -0.884468
0.330289 -1.01662 -0.796742
0.425056 -1.01873 -0.810026
0.588444 -1.01709 -0.801685
-0.610624 -0.997366 -0.847717
-0.512393 -0.944314 -0.801081
-0.407866 -0.930492 -0.854347
-0.322285 -0.946709 -0.843325
-0.240403 -0.944258 -0.886031
-0.206195 -0.901354 -0.81364
-0.143896 -0.946293 -0.855951
-0.067589 -0.951392 -0.811228
0.0894641 -0.94248 -0.799225
0.0859786 -0.949214 -0.878437
0.0100985 -0.945157 -0.833437
0.16678 -0.94624 -0.82845
0.220327 -0.95959 -0.889546
0.280387 -0.948749 -0.832386
0.34912 -0.926734 -0.873084
0.505967 -0.998372 -0.845809
0.59552 -0.954844 -0.864636
0.536727 -0.941274 -0.796669
-0.556463 -0.881642 -0.832149
-0.345945 -0.863785 -0.850204
-0.174395 -0.875207 -0.889147
-0.158294 -0.835792 -0.801606
-0.0534203 -0.880746 -0.839493
0.00569132 -0.82342 -0.817878
0.177583 -0.876768 -0.882118
0.150516 -0.834758 -0.809896
0.222435 -0.895118 -0.797753
0.347597 -0.84577 -0.838001
0.558692 -0.873697 -0.837183
-0.337797 -0.707401 -0.815514
-0.172207 -0.707401 -0.865745
2.29429e-10 -0.707401 -0.882708
0.172208 -0.707401 -0.865746
0.337797 -0.707401 -0.815515
-0.544895 -0.687892 -0.815493
0.544895 -0.687892 -0.815493
-0.162216 -0.538563 -0.815514
0 -0.538563 -0.831491
0.162216 -0.538563 -0.815515
-0.353553 -0.500294 -0.853553
0.353553 -0.500294 -0.853553
-0.162211 -0.327409 -0.815493
0 -0.327409 -0.83147
0.162212 -0.327409 -0.815493
-0.710167 -1.01402 -0.78181
-0.638379 -1.01757 -0.719042
-0.560984 -1.01722 -0.774385
-0.464272 -1.01902 -0.768177
-0.316743 -1.01999 -0.790831
-0.380151 -1.01962 -0.721007
-0.285416 -1.02353 -0.699514
-0.213775 -1.02243 -0.757554
-0.120428 -1.02264 -0.726913
-0.0286821 -1.02197 -0.777768
0.0580757 -1.02538 -0.732733
0.137387 -1.019 -0.784495
0.234593 -1.02251 -0.723546
0.324943 -1.02231 -0.701892
0.417228 -1.02061 -0.717005
0.503297 -1.01838 -0.759704
0.579601 -1.01963 -0.705908
0.680676 -1.01569 -0.778193
0.792195 -1.01534 -0.710599
-0.769431 -0.966297 -0.725921
-0.681359 -0.943419 -0.701714
-0.53566 -0.948567 -0.720494
-0.452403 -0.933943 -0.738321
-0.387821 -0.958709 -0.780988
-0.319659 -0.954382 -0.729921
-0.383269 -0.911935 -0.700402
-0.256515 -0.955307 -0.790969
-0.236926 -0.951519 -0.70481
-0.163764 -0.925848 -0.702307
-0.160364 -0.960988 -0.776363
-0.0705875 -0.954612 -0.727975
-0.0149152 -0.906825 -0.696135
0.0163133 -0.956181 -0.751656
0.187516 -0.954004 -0.745852
0.105214 -0.956895 -0.722524
0.278413 -0.955657 -0.750395
0.364931 -0.953829 -0.734656
0.339679 -0.907888 -0.788176
0.446865 -0.944616 -0.771489
0.438403 -0.927157 -0.695354
0.534149 -0.939387 -0.714591
0.658704 -0.985557 -0.696097
0.726115 -0.955316 -0.725055
-0.718259 -0.875666 -0.714252
-0.505518 -0.872858 -0.749711
-0.32989 -0.893327 -0.776529
-0.297156 -0.824417 -0.745722
-0.120409 -0.806389 -0.731241
-0.114268 -0.895973 -0.767113
-0.050214 -0.850724 -0.74072
0.0323445 -0.820268 -0.720741
0.0325416 -0.883441 -0.772633
0.162483 -0.817589 -0.717544
0.134599 -0.887089 -0.753131
0.237458 -0.897987 -0.705234
0.294069 -0.844905 -0.756412
0.502161 -0.87254 -0.755763
0.707891 -0.876882 -0.708562
-0.490405 -0.707401 -0.733944
-0.300278 -0.726903 -0.724937
-0.153106 -0.726838 -0.76962
0.00278034 -0.733333 -0.701491
-3.33733e-05 -0.726763 -0.786019
0.153101 -0.726889 -0.769675
0.238804 -0.794562 -0.698829
0.300438 -0.72688 -0.725272
0.490406 -0.707401 -0.733944
-0.318198 -0.538563 -0.768198
-0.144192 -0.576832 -0.724902
-1.02175e-18 -0.576832 -0.739103
0.144192 -0.576832 -0.724902
0.318198 -0.538563 -0.768198
-0.51328 -0.500294 -0.768177
0.51328 -0.500294 -0.768178
-0.318189 -0.327409 -0.768177
-0.14599 -0.382964 -0.733943
0 -0.382964 -0.748323
0.145991 -0.382964 -0.733944
0.31819 -0.327409 -0.768178
0 -0.175875 -0.707107
-0.722959 -1.01759 -0.671162
-0.640501 -1.01874 -0.621972
-0.554509 -1.02035 -0.676316
-0.493334 -1.02381 -0.605243
-0.461644 -1.002 -0.6805
-0.351263 -1.02307 -0.634519
-0.263718 -1.01935 -0.608703
-0.107341 -1.03998 -0.633582
-0.193317 -1.02154 -0.668463
-0.0328189 -1.02243 -0.686367
0.0573207 -1.03886 -0.639857
0.147688 -1.02279 -0.693253
0.135934 -1.03957 -0.607177
0.261616 -1.02538 -0.635574
0.435316 -1.02392 -0.615454
0.53753 -1.02165 -0.619445
0.632991 -1.02032 -0.619129
0.725189 -1.01524 -0.641543
-0.841112 -0.975664 -0.616956
-0.692669 -0.945663 -0.61499
-0.607388 -0.945934 -0.665828
-0.547374 -0.955606 -0.615144
-0.486618 -0.917923 -0.658792
-0.404846 -0.95666 -0.636796
-0.299696 -0.951063 -0.648291
-0.191212 -0.954444 -0.618377
-0.119846 -0.972356 -0.658611
-0.0472686 -0.953648 -0.638223
0.0198379 -0.912087 -0.612365
0.0342815 -0.972118 -0.671107
0.113975 -0.969725 -0.637076
0.152607 -0.90649 -0.673063
0.206991 -0.964327 -0.66121
0.292984 -0.949947 -0.666632
0.379419 -0.971754 -0.652739
0.475422 -0.947274 -0.617222
0.487635 -0.99491 -0.679992
0.584328 -0.952223 -0.651346
0.669914 -0.923788 -0.643206
0.840454 -0.990069 -0.610567
-0.648278 -0.858674 -0.666973
-0.574459 -0.823423 -0.60816
-0.440465 -0.852182 -0.683691
-0.438967 -0.871426 -0.599532
-0.372239 -0.814516 -0.604327
-0.303688 -0.882464 -0.686935
-0.358484 -0.892897 -0.615969
-0.228408 -0.892822 -0.644042
-0.257341 -0.81703 -0.668253
-0.173897 -0.846549 -0.684514
-0.139687 -0.8329 -0.603881
-0.0831673 -0.805791 -0.653272
-0.0930156 -0.887653 -0.668281
0.100937 -0.895209 -0.601216
0.104016 -0.831691 -0.661108
0.00672911 -0.844833 -0.645699
0.0672655 -0.897301 -0.687204
0.198026 -0.848306 -0.642481
0.263039 -0.888131 -0.6157
0.301223 -0.842327 -0.674353
0.358008 -0.895948 -0.673095
0.423042 -0.882105 -0.624732
0.460308 -0.842852 -0.690091
0.587896 -0.886416 -0.609906
0.645302 -0.839411 -0.641311
-0.624167 -0.707401 -0.624168
-0.435925 -0.726907 -0.652409
-0.264534 -0.741498 -0.636552
-0.137452 -0.739428 -0.675561
-0.00955345 -0.772876 -0.629899
0.169382 -0.777414 -0.614669
0.131391 -0.740973 -0.6802
0.263968 -0.722278 -0.641195
0.264649 -0.796351 -0.61206
0.435975 -0.726898 -0.65248
0.624168 -0.707401 -0.624168
-0.693519 -0.687892 -0.69352
-0.24749 -0.615099 -0.597494
-0.126168 -0.615101 -0.63429
1.93089e-08 -0.615086 -0.646765
0.126168 -0.615101 -0.634291
0.247499 -0.61509 -0.597516
0.69352 -0.687892 -0.69352
-0.410624 -0.576832 -0.614542
-0.461952 -0.538563 -0.69136
-0.282843 -0.576832 -0.682842
0.282843 -0.576832 -0.682843
0.410624 -0.576832 -0.614542
0.461952 -0.538563 -0.69136
-0.653281 -0.500294 -0.653281
-0.254551 -0.438521 -0.614542
-0.129769 -0.438521 -0.652394
0 -0.438521 -0.665176
0.129769 -0.438521 -0.652394
0.254552 -0.438521 -0.614542
0.653281 -0.500294 -0.653281
-0.415745 -0.382964 -0.622207
-0.461939 -0.327409 -0.691341
-0.28637 -0.382964 -0.69136
0.286371 -0.382964 -0.69136
0.415746 -0.382964 -0.622207
0.46194 -0.327409 -0.691342
-0.124155 -0.246585 -0.624168
0 -0.246585 -0.636396
0.124155 -0.246585 -0.624168
-0.270598 -0.175875 -0.653281
-0.13795 -0.175875 -0.69352
0.13795 -0.175875 -0.69352
0.270598 -0.175875 -0.653281
-0.91168 -1.01427 -0.569843
-0.819222 -1.01673 -0.540058
-0.729935 -1.01872 -0.577472
-0.653707 -1.02149 -0.522699
-0.571499 -1.02202 -0.559247
-0.488105 -1.02191 -0.511439
-0.4126 -1.01562 -0.57036
-0.325839 -1.02759 -0.539831
-0.100201 -1.04251 -0.546788
-0.18122 -1.02494 -0.57563
-0.0249009 -1.02332 -0.592919
0.0810388 -1.02615 -0.546575
0.00749023 -1.04211 -0.508146
0.170433 -1.0269 -0.522465
0.263061 -1.02442 -0.540047
0.342473 -1.02075 -0.59293
0.398041 -1.02169 -0.518623
0.489734 -1.01903 -0.539501
0.585981 -1.02003 -0.537521
0.680795 -1.01692 -0.53226
0.772531 -1.01828 -0.559788
0.842294 -1.0138 -0.495473
0.915057 -1.01392 -0.558649
-0.77274 -0.9418 -0.571342
-0.698565 -0.946079 -0.526539
-0.618046 -0.95283 -0.564756
-0.529967 -0.950472 -0.526797
-0.466706 -0.946601 -0.579366
-0.397979 -0.929158 -0.53957
-0.336074 -0.959495 -0.578116
-0.257134 -0.936556 -0.572754
-0.249042 -0.999999 -0.527368
-0.118001 -0.984144 -0.495858
-0.106035 -0.983292 -0.578385
-0.17799 -0.952123 -0.536074
-0.121862 -0.910844 -0.594596
-0.101569 -0.913628 -0.512756
-0.0390271 -0.940746 -0.56161
-0.052642 -0.995017 -0.510005
0.0154841 -0.981351 -0.520761
0.0450379 -0.980287 -0.59415
0.0591503 -0.926147 -0.532506
0.200795 -0.955036 -0.520258
0.129186 -0.964954 -0.561957
0.186871 -0.917644 -0.591529
0.194988 -0.999257 -0.593987
0.264939 -0.959064 -0.585445
0.261211 -0.909174 -0.523905
0.327462 -0.970181 -0.526072
0.338742 -0.927323 -0.594756
0.404944 -0.957544 -0.569926
0.471262 -0.932344 -0.533031
0.545598 -0.949549 -0.573682
0.633001 -0.949138 -0.570067
[...]
POINT_DATA 3856
SCALARS scalar float
LOOKUP_TABLE default
5097.48
5103.69
5098.04
5095.46
5108.85
5106.77
2640.61
2575.78
5099.28
5105.9
5103.08
5125.04
5134.9
5112.78
5121.68
5109.36
5126.15
5103.06
5109.28
5107.15
2566.1
2599.59
2618.06
2688.55
2601.26
2637.84
2667.78
2565.12
2564.97
2598.13
2584.23
2605.44
2585.76
2546.48
2546.48
2546.48
2546.48
2546.48
2546.48
2546.48
2546.48
5127.25
5128.29
5130.23
5120.33
5166.77
5118.47
5137.13
5121.5
5142.62
5123.68
5128.37
5111.61
5142.01
5116.84
2551.07
2621.32
2608.67
2623.11
2564.99
2684.75
2656.79
2718.75
2718.34
2651.04
2699.28
2668.33
2647.27
2668.89
2627.01
2601.53
2562.19
2661.75
2570.71
2609.57
2595.37
2621.48
2627.89
2613.09
2587.4
2604.9
2608.08
2595.84
2577.38
2546.48
2546.48
2546.49
2546.48
2546.48
2546.48
2546.48
2546.48
2546.48
2546.48
2546.48
2546.48
2546.48
2546.48
2546.48
5099.82
5120.8
5117.18
5145.6
5134.37
5147.44
5184.32
5178.29
5179.94
5165.01
5213.76
5135.96
5179.31
5171.24
5164.52
5145.84
5140.88
5109
5104.97
2556.81
2652.57
2633.9
2686.09
2670.32
2746.19
2684.15
2663.63
2679.05
2746.91
2702.42
2685.55
2787.54
2749.47
2657.81
2765.16
2661.1
2715.59
2728.44
2618.82
2680.69
2666.68
2652.57
2626.26
2612.52
2596.46
2694.1
2610.29
2638.57
2696.17
2645
2612.47
2701.13
2641.58
2703.03
2636.63
2598.12
2600.04
2581.33
2546.48
2546.69
2547.49
2590.69
2563.4
2547.99
2619.9
2549.56
2546.48
2546.48
2546.48
2546.48
2546.48
2546.48
2546.48
2546.48
2546.48
2546.48
2546.48
2546.48
2546.48
2546.48
5120.95
5124.37
5140.37
5220.55
5173.69
5196.17
5170.44
5784.57
5171.44
5181.22
5735.06
5202.17
5854.33
5238.94
5187.87
5170.43
5144.61
5108.88
2560.77
2585.88
2633.27
2698.09
2643.11
2679.06
2720.38
2748.74
2859.68
2779.65
2838.29
2794.72
2780.94
2726.01
2732.35
2671.34
2694.63
2712.36
2720.08
2674.82
2624.49
2553.71
2598.65
2609.55
2599.26
2637.55
2640.54
2694.54
2712.96
2727.12
2653.79
2652.24
2692.22
2653.62
2650.01
2675.65
2672.69
2752.92
2713.93
2709.9
2734.57
2705.65
2716.92
2684.68
2599.24
2708.29
2592.89
2546.48
2546.55
2585.45
2571.11
2730.93
2642.24
2574.65
2592.63
2694.03
2546.68
2546.48
2546.48
2546.61
2546.5
2546.55
2546.5
2547.07
2546.48
2546.48
2546.48
2546.48
2546.48
2546.48
2546.48
2546.48
2546.48
2546.48
2546.48
2546.48
2546.48
2546.48
2546.48
2546.48
2546.48
2546.48
2546.48
2546.48
2546.48
2546.48
2546.48
2546.48
2546.48
2546.48
2546.48
5101.27
5114.02
5128.45
5161.86
5195.69
5173.5
5170.53
5304.73
6170.98
5275.39
5204.68
5497.29
6327.01
5355.82
5237.43
5165.98
5202.41
5135.79
5141.46
5115.08
5127.53
5104.41
5099.66
2607.04
2608.31
2730.78
2702.09
2713.06
2738.31
2801.97
2748.11
2862.45
3222.64
2953.84
2829.09
2776.13
2797.07
2906.9
3094.67
3417.7
2976.47
2921.46
2846.58
2881.16
2738.88
2862.85
2837.76
2794.31
2769.76
2767.85
2751.13
2767.98
2707.23
2667.24
2622.78
2598.02
2563.57
2598.37
2701.26
2670.72
2619.64
2659.85
2739.96
2655.63
2651.48
2668.56
2686.68
2719.04
2719.11
2729.91
2776.67
2650.56
2801.36
2752.04
2688.83
2818.88
2745.95
2702.63
2790.11
2667.8
2641.72
2664.38
2716.08
2634.36
2614.96
2700.78
2695.3
2606.1
2645.53
2632.73
2548.67
2546.94
2619.66
2586.32
2603.18
2630.23
2594.42
2663.68
2642.94
2664.24
2706.57
2639.26
2701.08
2606.19
2590.25
2609.68
2595.95
2547.22
2546.48
2546.82
2565.3
2549.53
2606.01
2562.26
2568.44
2546.7
2546.48
2546.48
2546.48
2546.58
2546.48
2546.48
2546.48
2546.48
2546.48
2546.48
2546.48
2546.48
2546.48
2546.48
2546.48
2546.48
2546.48
2546.48
2546.48
2546.48
2546.48
2546.48
2546.48
2546.48
2546.48
2546.48
2546.48
2546.48
2546.48
2546.48
2546.56
2546.48
2546.48
2546.48
2546.48
2546.48
2546.48
2546.48
5101.39
5121.04
5138.67
5178.82
5240.84
5305.35
6110.36
6291.94
5555.88
5352.33
7447.9
6833.83
6552.04
6516.59
6643.63
6125.58
5260.84
6050.45
5217.31
5176.26
5142.57
5125.43
5110.89
2557.09
2607.64
2651.02
2694.73
2707.71
2740.33
2756.66
2767.96
2768.1
2753.42
2852.4
2850.61
2989.31
2791.93
3385.75
3124.86
3169.81
3797.69
3239.28
3087.54
3253.29
2859.92
3008
3768.9
3072.05
3783.43
3685.11
4112.74
3155.57
3433.41
3216.22
3158.85
3032.72
2971.63
2845.94
2771.35
2894.55
2935.51
2788.23
2878.65
2811.73
2769.52
2791.66
2776.06
2717.01
2656.52
2631.06
2582.38
2565.84
2697.2
2596.04
2617.74
2718.06
2645.82
2777.88
2679.3
2683.92
2722.05
2796.22
2867.16
2743
2890.89
3006.15
2933.47
3032.11
2756.3
2811.03
2716.28
2859.17
2702.48
2740.32
2662.48
2726.03
2692.9
2615.57
2546.48
2546.85
2602.06
2570
2675.84
2604.72
2662.66
2724.28
2654.52
2814.47
2866.52
2648.49
2826.51
2849.88
2812.96
2819.84
2665.46
2687.14
2653.71
2692.96
2586.48
2583.9
2557.98
2546.5
2546.54
2560.72
2625.59
2597.51
2629.82
2617.92
2636.09
2560.09
2546.51
2546.48
2546.48
2549.97
2549.06
2546.65
2643.41
2642.25
2549.71
2647.06
2546.68
2551.16
2546.48
2546.48
2546.48
2546.48
2546.48
2595.03
2595.07
2595.07
2546.48
2546.48
2546.48
2546.48
2546.48
2546.48
2546.48
2546.75
2546.74
2546.75
2546.74
2546.74
2546.75
2546.75
2546.48
2546.48
2546.48
2546.48
2546.48
2568.2
2568.2
2568.2
2568.2
2568.2
2546.48
2546.56
2546.56
2546.56
2546.56
2546.56
2546.56
2546.48
2546.48
5129.28
5101.39
5121.18
5128.73
5146.24
5188.77
5214.32
6160.51
6889.83
5279.86
5727.45
7397.3
5756.25
7441.44
8623.65
8500.4
8760.08
6058.8
5758.45
7253.27
7570.05
7149.31
5538.2
6762.53
5420.68
5291.14
6180.43
5313.91
5170.32
5161.35
5167
5117.18
5108.05
2591.66
2730.82
2750.16
2757.87
2699.23
2784.24
2933.61
2843.02
3118.42
3018.26
3308.6
4385.33
3109.66
3628.74
5316.32
4427.6
3351.86
3705.14
3824.26
3692.7
3756.72
4561.38
5277.83
4870.88
3801.48
4623.82
3797.1
4764.51
3357.48
4265.08
3959.98
3755.69
3080.87
3219.51
3230.93
3054.72
3070.07
2780.86
2849.1
2753.91
2747.97
2712.37
2717.11
2704.69
2649.38
2621.22
2548.68
2577.93
2606.28
2641.07
2609.48
2693.68
2729.09
2703.74
2713.72
2886.25
2764.05
2850.9
2960.58
2757.47
2819.06
3043.89
3171.36
4199.47
3022.97
4102.79
4330.27
4222.24
3328.67
2992.99
4126.69
3305.7
2919.83
4166.7
2944.84
2803.27
2968.75
2835.07
2683.89
2715.3
2731.33
2676.2
2597.91
2689.71
2702.3
2637.12
2608.11
2605.74
2563.79
2546.48
2546.51
2680.22
2572.02
2618.63
2684.41
2657.45
2669.17
2823.44
2933.67
2921.66
2903.99
4421.56
4263.61
2883.55
2854.47
4416.15
2867.87
4228.63
2901.04
2933.89
2885.78
2874.74
2794.93
2839.49
2638.05
2660.19
2670.32
2623.24
2659.22
2584
2548.19
2546.48
2546.48
2546.8
2583.17
2615.37
2551.32
2638.22
2898.2
3119.54
2886.14
3105
3096.03
2902.28
3092.87
3098.48
2607.31
2896.68
2552.41
2616.32
2573.31
2546.61
2546.48
2546.48
2546.64
2661.3
2642.32
2848.4
2853.32
2848.29
2853.61
2649.46
2849.35
2649.28
2546.63
2546.48
2546.48
2546.48
2546.48
2595.03
2595.08
2595.03
2595.03
2595.11
2595.02
2546.48
2546.48
2546.48
2546.48
2546.48
2546.75
2970.36
2970.35
2970.37
2970.35
2970.36
2546.74
2546.48
2546.48
2546.48
2568.2
2683.15
2568.2
2683.15
2683.16
2683.15
2683.15
2683.14
2568.2
2683.15
2568.2
2546.48
2546.48
2546.56
3197.64
3197.64
3197.64
2546.56
2546.48
2546.48
2546.48
2895.59
2895.59
2895.59
2895.59
2895.59
2546.48
2546.48
2705.27
2705.28
2705.27
2705.27
2705.27
2705.27
2705.27
5122.86
5157.63
5173.3
5229.59
5247.71
7339.78
5412.15
5632.8
6849.2
7432.09
7144.43
6601.69
8649.45
9562.94
6773.08
8724.04
9763.71
9892.42
8140.8
8370.16
8530.43
9633.8
7990.47
8183.09
8157.36
8069.19
6235.22
7423.84
7259.2
5409.73
5313.06
5189
5164.21
5178.29
5155.68
5165.44
5130.1
5099.44
2570.09
2650.25
2696.93
2634.08
2720.66
2786.47
2731.6
2830.06
2880.16
3100.24
3150.46
3745.83
3104.04
4349.48
3640.42
3864.73
4793.5
3813.68
4932.27
5128.12
4765
5448.79
6912.11
5549.22
3780.98
3773.45
4811.21
5979.04
5202.66
4712.72
5004.82
3874.37
5530.97
3722.08
3870.17
3810.34
4436.64
3204.57
4970.69
3712.92
3277.95
3171
3717.16
2755.04
2878.79
2799.97
2659.67
2696.02
2713.89
2617.41
2622.82
2581.1
2708.01
2681.71
2710.47
2632.23
2663.93
2757.09
2767.59
2987.81
2908.24
3281.27
4476.85
2945.28
4241.44
4526.8
4221.66
4197.15
4490.4
4124.2
4574.25
4521.84
4272.29
4519.04
5039.7
4207.51
5109.95
4454.86
4296.11
4120.86
4517.82
4896.2
2953.8
4237.34
3210.32
3084
2924.02
2746.53
2702.96
2888.38
2679.56
2621.42
2722.6
2624.85
2696.08
2572.98
2613.95
2681.87
2720.91
2797.51
2899.95
2857.23
4047.95
4210.72
4474.54
4449.08
4229.38
4160.3
4933.23
4505.46
4123.2
4457.73
4464.23
4209.15
4156.23
4241.79
2906.76
4452.82
2829.32
2859.31
2631.56
2696.57
2606.93
2658
2578.55
2551.12
2580.24
2650.26
2891.03
3126.59
2921.04
3090.69
4925.29
4975.62
5833.23
4984.84
5809.18
5837.09
5824.73
4946
4909.85
5842.65
3108.28
4954.39
2907.28
3129.78
2896.4
2640.53
2547.65
2571.62
2546.48
2547.13
2652.31
2856.59
2856.78
2850.99
2648.44
3575.98
3572.44
3565.33
4515.32
3573.93
3562.72
4540.72
4526.48
4531.49
3569.85
4539.39
3561.64
3573.9
3572.28
2855.01
2637.92
2854.27
2847.19
2648.75
2548.59
2546.48
2546.48
2546.48
2595.07
3507.98
3509.82
3507.76
3509.74
3507.72
3509.75
3507.78
3507.85
3509.77
2595.08
2546.48
2546.48
2546.48
2546.48
2546.75
2970.36
2970.35
4246.58
4246.54
4246.51
4246.54
4246.54
2970.37
2970.36
2546.75
2546.48
2546.48
2546.48
2683.15
2568.2
2683.15
3637.22
3637.2
3637.24
3637.19
3637.2
3637.19
3637.22
2683.15
2683.15
2568.2
2546.48
2546.48
2546.56
3197.62
3197.63
3197.62
3197.62
3197.63
3197.62
2546.56
2546.48
2546.48
2895.6
2895.59
2895.59
2895.59
2546.48
2705.28
2705.26
5018.01
2705.27
2705.27
5101.66
5111.72
5133.09
5178.45
5160.03
5530.27
5292.27
6818.42
5654.76
6073.69
7586.5
8430.88
8398.23
9922.79
10052.1
7385.27
7801.74
13134.6
10476.8
10494.3
12772.1
12417.9
13909.6
8497.79
9791.7
7486.04
10757.7
9141.22
8158.78
11841.3
5752.07
7308.64
6511.17
5282.1
5194.65
5194.8
5122.16
5106.29
2659.22
2629.04
2700.19
2724.7
2689.4
2813.42
2823.7
2795.12
3014.19
3231.28
3773.56
3746.79
4528.93
3701.87
5238.46
3849.48
4861.8
5609.77
6791.82
5952.73
10535.7
6866.46
10001.2
4794.48
10658.1
8034.92
8937.38
7031.24
7696.31
11809.3
13404.8
11470.5
10690.8
12099
6116.61
11353.9
12877.1
7773.32
6011.96
12967.8
7788.65
11466.4
6039.66
10399.9
7905.36
13906.7
12256.7
7767.26
6964.44
11445.1
14181.7
13363.3
11348.3
7882.59
4855.53
6797
9894.47
7183.6
9626.43
6871.93
6140.59
3822.09
5331.81
4921.03
4560.86
3774.07
3283.3
3700.72
3812.81
2988.57
2863.12
3195.02
3895.33
2887.82
2838.11
2748.27
2734.81
2754.16
2669.94
2564.04
2615.39
2597.56
2611.66
2690.98
2784.71
2827.57
2748.81
2907.23
2998.95
2778.55
4167.46
3060.21
3178.12
4170.13
4203.88
4282.18
4560.94
4514.92
5119.97
4175.51
4992.94
4967.83
5028.43
5007.58
4951.85
5895.94
7659.28
5845.54
5031.27
5933.18
4438.67
4321.34
4929.8
5944.96
4663.85
3271.84
4301.19
4527.67
4283.99
4060.08
3048.35
4110.55
2820.59
2710.09
2856.17
2697.61
2756.62
2654.88
2632.84
2686.97
2628.72
2708.08
2627.75
2626.57
2546.48
2602.25
2555.21
2669.83
2590.53
2592.33
2728.56
2796.18
2654.75
2888.34
2887.13
4243.99
4168.65
4491.9
4180.99
4462.98
4425.38
4175.29
4276.89
4413.63
2842.78
2923.22
2709.99
2672.48
2639.62
2587.71
2683.34
2553.42
2546.48
2546.48
2563.94
2603.34
2675.43
2634.45
3113.46
4938.08
3100.5
4980.78
4915.27
5814.41
5815.06
5840.24
7467.68
7467.77
7469.61
7469.95
7468.09
7463.33
7460.04
7460.16
7466.76
4942.34
5839.38
5813.12
5812.88
3093.43
4911.76
4975.97
3114.25
2634.96
2596.21
2546.99
2546.48
2546.48
2546.53
2549.08
2547.42
2853.67
2657.52
3564.66
3573.24
6612.36
4540.84
4539.8
4531.45
6611.61
6611.68
10985.9
10985.7
10986.8
10986.5
6616.45
6616.32
6612.29
10987.3
10988.7
10988.1
6615.35
6616.99
4537.38
4537.33
4538.47
6612.75
3568.88
3576.56
2849.52
2655.26
2547.61
2546.88
2546.48
2546.48
2546.48
2546.48
2546.48
2595.04
3509.84
3508.29
5118.58
5118.59
5118.59
5118.58
5118.63
5118.59
5118.59
5118.63
5118.59
5118.59
5118.59
3508.37
3509.75
2595.04
2546.48
2546.48
2546.48
2546.48
2546.48
2546.48
2546.74
2546.75
2970.36
2970.37
4246.49
4246.54
4246.54
10088.9
10088.9
10088.9
4246.54
4246.54
4246.56
2970.35
2970.36
2546.74
2546.75
2546.48
2546.48
2546.48
2546.48
2568.2
2683.15
3637.2
3637.22
3637.17
8376.22
8376.19
8376.2
8376.19
8376.19
8376.22
8376.19
3637.17
3637.2
3637.22
2683.14
2568.2
2546.48
2546.48
2546.56
2546.56
3197.62
3197.63
7164.64
7164.75
7164.67
7164.71
7164.75
7164.64
7164.67
7164.75
7164.71
3197.63
3197.62
2546.56
2546.56
2546.48
2546.48
2895.58
2895.59
6271.62
6271.62
6271.62
6271.66
6271.65
6271.62
6271.65
6271.62
6271.62
2895.59
2895.59
2546.48
2705.27
5583.38
5583.38
5583.42
5017.98
5017.98
5017.93
5583.38
5583.4
5583.34
5017.99
5017.98
5583.37
5583.35
5583.36
5017.98
5017.99
5583.37
5583.38
5017.98
5017.93
5017.98
2705.27
5106.05
5133.34
5160.73
5131.09
5205.9
5258.44
6202.4
5774.01
6086.23
7757.79
7040.57
8171
8115.71
8175.59
8688.43
10076.5
9542.61
5543.28
5938.45
5776.97
5881.23
6133.41
12464.2
10851.4
12276
8080.65
7775.42
6991.34
8551.1
6997.88
5520.02
6844.45
5320.22
5959.87
6073.42
5204.92
5130.48
5116.35
5101.24
2644.65
2619.22
2685.7
2696.81
2757.51
2776.49
2747.82
2889.74
3435.42
3257.84
3089.63
3690.4
3320.73
3699.21
3890.09
3770.05
5139.83
4863.72
4738.77
5412.74
8526.87
9909.23
10452.5
11639.1
10659.8
13441.9
12831.2
13564.8
7853.29
11097.2
7066.31
19508.1
19570.9
13707.8
13747.7
14676.7
19675
19580.7
19419.4
19257.2
10959
19644.9
11697.4
19742.8
20001.3
19531.6
13178.8
12593.4
19609
19706.3
19651.3
19556.1
19532.9
19749.1
11582.9
10994.4
5956.48
6025.17
13650.2
7718.05
11230.1
11424.1
10000.6
13450.5
13838.2
7878.88
12383.7
8283.94
11796.7
6947.97
7015.28
4663.58
4886.13
4859.45
5576.95
3843
4189.94
3906.98
3978.84
4112.75
3152.25
3056.31
2853.94
2884.33
2786.2
2904.01
2760.59
2717.46
2677.15
2658.84
2607.1
2546.48
2582.69
2636.75
2610.26
2727.6
2696.09
2733.3
2724.01
2807.67
2784.92
2714.76
2958.09
4053.12
4220.97
4127.88
5085.1
4550.75
4283.79
6088.37
4944.5
7497.65
5962.9
5858.87
7370.4
7569.26
7409.24
5831.04
5901.99
4988.72
4224.72
4272.56
4215.11
4336.59
4494.41
5008.44
3228.13
3288.35
2954.66
3867.58
2953.16
2710.36
2744.13
2747.22
2623
2652.43
2658.08
2586.76
2548.47
2546.48
2548.61
2581.01
2613.89
2682.25
2654.01
2799.43
3988.73
2904.15
2915.6
4202.96
2898.07
4239.79
4480.31
4508.6
4906.93
4228.47
2885.69
4358.89
2908.26
4202
2840.15
2694.51
2658.61
2615.8
2595.08
2548.16
2546.48
2546.48
2546.61
2570.95
2624.57
2642.24
2867.72
3117.13
3093.91
4937.76
4983.7
5826.83
5826.14
5843.3
7465.78
7463.95
7468.7
7464.25
7464.32
7459.1
7461.78
7461.9
5835.36
4949.11
5829.27
5840.62
3113.51
2900.62
3104.11
2605.57
2646.66
2561.05
2546.75
2546.48
2546.48
2546.48
2546.61
2645.56
2657.7
2853.07
2858.16
3565.44
3565.11
4529.11
4532.38
4540.24
10987.6
10985.8
10987.2
10986.4
6613.43
6613.71
6615.52
6615.11
19184
19178.7
13931.6
10987.3
19184.9
19186
19181.5
19183.3
19179.9
19186.1
19185.3
10986.2
19182.9
19181.6
19179.7
19182.9
19178.2
19182.8
19183.1
19183.4
10985.9
10989.4
10987.5
10989.1
6614.55
6614.56
6617.63
6616.15
3568.26
3585.53
4543.17
4536.26
4540.96
2847.9
2853.55
2643.05
2647.54
2548.22
2546.48
2546.48
2546.48
2546.48
2546.48
2595.03
2595.07
3508.04
3509.93
5118.6
5118.58
5118.63
4187.62
12887.1
12887.2
12887.2
12887.4
12887.1
12886.9
12887.7
12887.5
12887.5
12886.8
12888
12887.4
12887.8
12887.8
12888.4
12887.3
12887.4
5118.6
5118.63
5118.6
3509.67
3508.3
2595.05
2595.04
2546.48
2546.48
2546.48
2546.48
2546.48
2546.48
2546.75
2970.35
2970.35
4246.54
4246.51
4246.58
10088.9
10088.9
2547.76
10088.9
10088.9
10088.8
10088.9
10088.9
10088.9
10088.8
10088.9
10088.9
10088.9
10088.9
10088.9
4246.54
4246.51
4246.54
2970.35
2970.37
2546.75
2546.48
2546.48
2546.48
2546.48
2568.2
2568.2
2683.15
2683.15
3637.24
3637.19
8376.22
8376.2
8376.19
8376.19
2546.48
8376.23
8376.22
8376.23
8376.19
8376.2
8376.19
3637.19
3637.24
2683.16
2683.15
2568.2
2568.2
2546.48
2546.48
2546.56
3197.64
3197.64
7164.67
7164.75
7164.75
7164.71
2546.48
7164.67
7164.71
7164.75
7164.75
3197.64
3197.64
2546.56
2546.48
2546.48
2895.59
2895.59
6271.66
6271.65
6271.62
6271.62
2546.48
6271.62
6271.66
6271.62
6271.65
2895.59
2895.59
2546.48
2705.27
2705.27
5018.01
5583.39
5583.34
5583.38
5017.98
5017.99
2546.48
5583.38
5583.39
5583.34
5018.01
5017.98
5017.99
2705.27
2705.27
5092.96
5135.63
5114.41
5169.45
5878.56
5266.74
6262.68
5462.69
7237.08
8382.18
8684.49
9187.72
8632.49
7941.21
10184.4
12496.7
12713.5
7764.44
14220.4
6458.72
10041.4
5929.25
7932.33
8432.83
8458.2
9000.62
10420.2
9276.2
6741.29
6810.04
5241.59
6203.68
5923.05
5179.21
5187.3
5148.88
5123.24
5117.97
2554.4
2627.09
2700.16
2742.51
2850.89
2769.66
2711.35
2883.02
2818
2849.33
3466.55
3915.78
3015.62
3683.35
3113.2
4646.58
3759.15
4705.86
6029.08
4805.88
6961.15
4772.17
11872
12402.2
6121.98
7731.87
12055.1
6981.31
11380.7
12909.6
13020.6
11724.5
20865.6
11416.6
11257.8
7638.55
19778.3
20699.2
20894.7
19906.9
19598.9
19707.3
13942.2
13973.2
13911.5
11432.2
19646.1
20796.2
19876.3
19727.5
19818.6
19658
20030.1
19827.3
10993.5
11045.6
20396.1
11940.9
12844.7
11142.8
7783.84
12162.8
6901.17
10583.5
10715.3
10553
11435.3
7833.94
5044.13
7129.38
5273.72
4847.62
6085.16
5336.67
4579.32
3823.49
3716.01
3702.9
3880.93
3054.47
3158.42
3512.72
3386.96
2845.39
2698.64
2842.92
2856.88
2768.88
2773
2660.93
2667.85
2616.07
2673.95
2559.07
2607.2
2607.1
2713.45
2825.22
2694.91
2947.47
2842.96
3111.08
4212.07
3232.21
2930.11
4226.04
5086.46
5032.25
4520.21
4429.63
4228.08
5861.55
7805.99
5848.35
7467.67
7504.01
7538.05
7630.68
7667.88
7619.36
4908.59
6026.06
5843.21
4976.8
5035.69
4215.64
4185.21
4539.02
4298.96
2952.07
3231.04
3008.25
2720.64
3003.64
2923.47
2745
2723.79
2664.87
2660.12
2605.29
2668.22
2660.39
2671.44
2831.87
2892.42
2882.13
4172.29
4477.7
4467.02
4205.19
2912.84
2650.68
2786.95
2834.71
2631.53
2624.54
3116.75
2909.57
4952.52
5823.83
5834.93
4898.89
7457.88
7456.33
7456.69
5827.78
7463.83
7463.29
7462.93
5842.54
4935.71
4963.66
2900.28
2894.58
3116.56
2638.36
2651.54
2549.3
2855.97
3580.33
4495.18
4543.54
10983.4
10981.9
10985
6613.92
6619.26
6622.13
10980.5
10981.4
19176.9
19177.5
19175
19174.2
19176.8
19174.8
19175.8
19178.1
19180.9
19177.8
10985.8
10983.9
10981.2
19178.5
19179.1
19180
19181.3
19181.7
6614.34
6614.12
6616.8
10986.5
10987.9
4544.33
4535.37
3569.6
2852.45
2546.93
2655.9
2595.09
3509.87
5118.63
5118.58
12888.4
12888.9
12888.4
12888.3
12887.7
12888
12888.4
12888.7
12888.4
12888.6
12888.3
12888.4
12888.3
12888.1
12888.2
5118.63
5118.6
3509.62
2595.04
2546.74
2970.37
4246.54
4246.58
10088.9
10088.9
10088.9
10088.9
10088.8
10088.9
10088.9
10088.9
10088.9
10088.8
10088.9
10088.9
10088.9
10088.9
10088.9
4246.54
4246.54
2970.35
2546.74
2568.2
2683.15
3637.19
3637.2
8376.19
8376.22
8376.19
8376.23
8376.22
8376.22
8376.23
8376.22
8376.19
8376.19
3637.19
3637.2
2683.15
2568.2
2546.56
3197.64
7164.64
7164.71
7164.75
7164.67
7164.64
7164.71
7164.67
7164.75
3197.64
2546.56
2895.59
6271.62
6271.65
6271.62
6271.65
6271.62
6271.62
2895.59
2705.27
5583.34
5583.38
5583.38
5017.98
5017.99
5583.38
5583.38
5583.34
5017.99
5017.98
2705.27
5100.78
5130.75
5148.91
5225.3
5829.37
5339.89
7027.73
6492.4
7253.02
5643.38
8200.04
10274.5
8816.37
8751.75
10313.8
14246.3
11876
10375.1
12734
12719.9
19160.4
18753
7936.75
12400.7
12379.8
18888.1
10413.7
9556.98
9716.25
10355.7
11577.3
12058.2
7895.22
7740.95
9647.89
7198.47
7771.34
5330.25
5574
6083.84
5283.46
5196.01
5199.63
5132.72
5104.63
2606.85
2622.06
2713.18
2666.56
2813.72
2738.8
3093.01
2859.09
3210.76
3082.16
2948.85
3171.28
3533.77
3730.01
4536.72
3647.15
3808.65
3294.14
6006.99
4741.15
5520.13
3853.3
4892.86
7829.61
5398.68
7131.11
7063.85
12036.9
11773
7778.76
7776.68
6103.64
7763.11
10136.7
9705.02
13337.7
13865.9
13793
11515.9
11608.6
7752.19
7804.83
6091.51
8607.32
7201.32
4810.42
6984.08
5920.25
10820
6077.94
4847.2
4700.71
3836.16
5042.98
5200.39
3800.34
3246.31
3635.94
3161.24
2833.59
2779.73
2777.99
2784.39
2756.75
2736.35
2649.29
2613.04
2606.15
2605.22
2600.21
2671.9
2698.41
2655.68
2747.39
2733.61
3006.01
3254.18
3999.2
4369.83
4504.25
4474.89
4139.18
4965.65
5346.6
4941.55
4498.42
4370.46
4956.54
5999.81
5913.29
5862.38
5072.53
4964.08
5958.86
5012.6
4961.81
5010.6
4259.72
4507.45
4219.2
4208.17
4170.43
4619.12
4239.67
3050.24
2792.78
2828.26
2766.88
2673.47
2661.62
2717.2
2642.16
2631.09
2600.45
2696.16
2607.03
2601.74
2546.48
2614.26
2547.96
2591.05
2666.39
2619.1
2656.07
2755.34
2789.19
2921.52
4136.16
2901.84
4413.36
4465.05
4212.62
4929.65
4169.69
4355.97
4506.43