# vtk DataFile Version 3.0
Happy Go Lucky
ASCII
DATASET POLYDATA
POINTS 3856 float
0 -0.392979 -1
-0.18024 -0.775667 -0.906127
0 -0.775667 -0.923879
0.18024 -0.775667 -0.906127
-0.37533 -0.588069 -0.906127
-0.191341 -0.588069 -0.961939
0 -0.588069 -0.980785
0.191342 -0.588069 -0.96194
0.37533 -0.588069 -0.906127
-0.382683 -0.392979 -0.923879
-0.19509 -0.392979 -0.980784
0 -0.392979 -0.9
0.19509 -0.392979 -0.980785
0.382683 -0.392979 -0.923879
-0.37533 -0.19789 -0.906127
-0.191341 -0.19789 -0.961939
0 -0.19789 -0.980785
0.191342 -0.19789 -0.96194
0.37533 -0.19789 -0.906127
-0.18024 -0.010296 -0.906127
0 -0.010296 -0.923879
0.18024 -0.010296 -0.906127
-0.162211 -0.948558 -0.815493
5.90203e-17 -0.948558 -0.83147
0.162212 -0.948558 -0.815493
-0.353553 -0.775667 -0.853553
-0.162216 -0.737398 -0.815514
0 -0.737398 -0.831491
0.162216 -0.737398 -0.815515
0.353553 -0.775667 -0.853553
-0.544895 -0.588069 -0.815493
-0.337797 -0.56856 -0.815514
-0.172207 -0.56856 -0.865745
0 -0.56856 -0.882707
0.172208 -0.56856 -0.865746
0.337797 -0.56856 -0.815515
0.544895 -0.588069 -0.815493
-0.555569 -0.392979 -0.831469
-0.344414 -0.392979 -0.831491
-0.175581 -0.392979 -0.882706
0 -0.392979 -0.8
0.175581 -0.392979 -0.882707
0.344415 -0.392979 -0.831492
0.55557 -0.392979 -0.831469
-0.337797 -0.217399 -0.815514
-0.172207 -0.217399 -0.865745
0 -0.217399 -0.882707
0.172208 -0.217399 -0.865746
0.337797 -0.217399 -0.815515
-0.544895 -0.19789 -0.815493
0.544895 -0.19789 -0.815493
-0.353553 -0.010296 -0.853553
-0.162216 -0.0485644 -0.815514
0 -0.0485644 -0.831491
0.162216 -0.0485644 -0.815515
0.353553 -0.010296 -0.853553
-0.162211 0.162591 -0.815493
0 0.162591 -0.83147
0.162212 0.162591 -0.815493
-0.139303 -1.01473 -0.711946
0.000154422 -1.01352 -0.749835
0.13931 -1.01473 -0.711973
-0.318189 -0.948558 -0.768177
0.31819 -0.948558 -0.768178
-0.14599 -0.893001 -0.733943
-2.6292e-07 -0.892969 -0.748384
0.145991 -0.893001 -0.733944
-0.51328 -0.775667 -0.768177
-0.318198 -0.737398 -0.768198
0.318198 -0.737398 -0.768198
0.51328 -0.775667 -0.768178
-0.144192 -0.699129 -0.724902
0 -0.699129 -0.739103
0.144192 -0.699129 -0.724902
-0.490405 -0.56856 -0.733944
-0.300264 -0.549051 -0.724902
-0.153073 -0.549051 -0.769551
0 -0.549051 -0.784628
0.153073 -0.549051 -0.769552
0.300264 -0.549051 -0.724902
0.490406 -0.56856 -0.733944
-0.707106 -0.392979 -0.707106
-0.500012 -0.392979 -0.748322
-0.306146 -0.392979 -0.739103
-0.156072 -0.392979 -0.784627
0 -0.392979 -0.7
0.156072 -0.392979 -0.784628
0.306147 -0.392979 -0.739104
0.500013 -0.392979 -0.748323
0.707107 -0.392979 -0.707107
-0.490405 -0.217399 -0.733944
-0.300264 -0.236908 -0.724902
-0.153073 -0.236908 -0.769551
0 -0.236908 -0.784628
0.153073 -0.236908 -0.769552
0.300264 -0.236908 -0.724902
0.490406 -0.217399 -0.733944
-0.51328 -0.010296 -0.768177
-0.318198 -0.0485644 -0.768198
-0.144192 -0.0868328 -0.724902
0 -0.0868328 -0.739103
0.144192 -0.0868328 -0.724902
0.318198 -0.0485644 -0.768198
0.51328 -0.010296 -0.768178
-0.318189 0.162591 -0.768177
-0.14599 0.107035 -0.733943
0 0.107035 -0.748323
0.145991 0.107035 -0.733944
0.31819 0.162591 -0.768178
0 0.314125 -0.707107
-0.402729 -1.01493 -0.604495
-0.27529 -1.01504 -0.666814
-0.0875325 -1.01609 -0.609076
-0.000835933 -1.01778 -0.654358
0.0876964 -1.01612 -0.609053
0.275278 -1.01503 -0.666744
0.402784 -1.01494 -0.604576
-0.461939 -0.948558 -0.691341
-0.261287 -0.942842 -0.611694
-0.145791 -0.955287 -0.641685
0.000410005 -0.931926 -0.666742
0.145761 -0.955173 -0.641815
0.261269 -0.942721 -0.611677
0.46194 -0.948558 -0.691342
-0.415745 -0.893001 -0.622207
-0.28637 -0.893 -0.691361
-0.254551 -0.837442 -0.614542
-0.129769 -0.837442 -0.652394
-2.53482e-08 -0.837436 -0.665176
0.129769 -0.837442 -0.652394
0.286371 -0.893 -0.691361
0.254552 -0.837442 -0.614542
0.415746 -0.893001 -0.622207
-0.653281 -0.775667 -0.653281
-0.461952 -0.737398 -0.69136
0.461952 -0.737398 -0.69136
0.653281 -0.775667 -0.653281
-0.410624 -0.699129 -0.614542
-0.282843 -0.699129 -0.682842
-0.247487 -0.660859 -0.597487
-0.126168 -0.660859 -0.634289
0 -0.660859 -0.646715
0.126168 -0.660859 -0.634289
0.247487 -0.660859 -0.597487
0.282843 -0.699129 -0.682843
0.410624 -0.699129 -0.614542
-0.624167 -0.56856 -0.624168
-0.693519 -0.588069 -0.69352
-0.435916 -0.549051 -0.652394
-0.262731 -0.529542 -0.634289
-0.133939 -0.529542 -0.673357
0 -0.529542 -0.68655
0.133939 -0.529542 -0.673358
0.262731 -0.529542 -0.634289
0.435916 -0.549051 -0.652394
0.624168 -0.56856 -0.624168
0.69352 -0.588069 -0.69352
-0.636395 -0.392979 -0.636396
-0.444455 -0.392979 -0.665175
-0.267878 -0.392979 -0.646715
-0.136563 -0.392979 -0.686549
0 -0.392979 -0.6
0.136563 -0.392979 -0.68655
0.267878 -0.392979 -0.646716
0.444456 -0.392979 -0.665176
0.636396 -0.392979 -0.636396
-0.624167 -0.217399 -0.624168
-0.435916 -0.236908 -0.652394
-0.262731 -0.256417 -0.634289
-0.133939 -0.256417 -0.673357
0 -0.256417 -0.68655
0.133939 -0.256417 -0.673358
0.262731 -0.256417 -0.634289
0.435916 -0.236908 -0.652394
0.624168 -0.217399 -0.624168
-0.693519 -0.19789 -0.69352
-0.247487 -0.125102 -0.597487
-0.126168 -0.125102 -0.634289
0 -0.125102 -0.646715
0.126168 -0.125102 -0.634289
0.247487 -0.125102 -0.597487
0.69352 -0.19789 -0.69352
-0.653281 -0.010296 -0.653281
-0.410624 -0.0868328 -0.614542
-0.461952 -0.0485644 -0.69136
-0.282843 -0.0868328 -0.682842
0.282843 -0.0868328 -0.682843
0.410624 -0.0868328 -0.614542
0.461952 -0.0485644 -0.69136
0.653281 -0.010296 -0.653281
-0.254551 0.0514776 -0.614542
-0.129769 0.0514776 -0.652394
0 0.0514776 -0.665176
0.129769 0.0514776 -0.652394
0.254552 0.0514776 -0.614542
-0.415745 0.107035 -0.622207
-0.461939 0.162591 -0.691341
-0.28637 0.107035 -0.69136
0.286371 0.107035 -0.69136
0.415746 0.107035 -0.622207
0.46194 0.162591 -0.691342
-0.124155 0.243416 -0.624168
0 0.243416 -0.636396
0.124155 0.243416 -0.624168
-0.270598 0.314125 -0.653281
-0.13795 0.314125 -0.69352
0.13795 0.314125 -0.69352
0.270598 0.314125 -0.653281
-0.509427 -1.01499 -0.509409
-0.311237 -1.01656 -0.5228
-0.232543 -1.01846 -0.577247
0.000250773 -1.01674 -0.560941
-0.0816167 -1.01747 -0.514117
0.0819954 -1.01755 -0.514072
0.232345 -1.01848 -0.577762
0.310412 -1.01669 -0.522128
0.509476 -1.01496 -0.509486
-0.587937 -0.948558 -0.587938
-0.374031 -0.954413 -0.54203
-0.230028 -0.9669 -0.500821
-0.209659 -0.910185 -0.548612
-0.156155 -0.985217 -0.547601
-0.0955128 -0.934699 -0.563826
-5.1122e-05 -0.929833 -0.574569
0.0955454 -0.934732 -0.56385
0.156407 -0.984935 -0.54721
0.230799 -0.968061 -0.500678
0.20995 -0.91081 -0.547902
0.373681 -0.954935 -0.541845
0.587938 -0.948558 -0.587938
-0.529144 -0.893 -0.529144
-0.369551 -0.837442 -0.553073
7.38842e-05 -0.865654 -0.499721
0.369552 -0.837442 -0.553073
0.529145 -0.893 -0.529145
-0.768177 -0.775667 -0.51328
-0.587953 -0.737398 -0.587953
-0.222732 -0.781883 -0.537724
-0.113548 -0.781883 -0.570845
2.88651e-22 -0.781883 -0.582029
0 -0.726325 -0.498882
0.113548 -0.781883 -0.570845
0.222733 -0.781883 -0.537724
0.587953 -0.737398 -0.587953
0.768178 -0.775667 -0.51328
-0.522625 -0.699129 -0.522625
-0.359296 -0.660859 -0.537724
-0.212132 -0.62259 -0.512132
-0.108144 -0.62259 -0.543676
-2.52272e-22 -0.62259 -0.554327
0.108144 -0.62259 -0.543676
0.212132 -0.62259 -0.512132
0.359296 -0.660859 -0.537724
0.522625 -0.699129 -0.522625
-0.815493 -0.588069 -0.544895
-0.554815 -0.549051 -0.554816
-0.381426 -0.529542 -0.570845
-0.225198 -0.510032 -0.543676
-0.114805 -0.510032 -0.577164
0 -0.510032 -0.588471
0.114805 -0.510032 -0.577164
0.225198 -0.510032 -0.543676
0.381427 -0.529542 -0.570845
0.554816 -0.549051 -0.554816
0.815493 -0.588069 -0.544895
-0.831468 -0.392979 -0.55557
-0.748322 -0.392979 -0.500013
-0.565685 -0.392979 -0.565685
-0.333342 -0.392979 -0.498881
-0.388898 -0.392979 -0.582028
-0.22961 -0.392979 -0.554327
-0.117054 -0.392979 -0.588471
-1.96784e-09 -0.392979 -0.5
0.117054 -0.392979 -0.588471
0.22961 -0.392979 -0.554328
0.388899 -0.392979 -0.582029
0.333342 -0.392979 -0.498882
0.565685 -0.392979 -0.565685
0.748323 -0.392979 -0.500013
0.83147 -0.392979 -0.55557
-0.554815 -0.236908 -0.554816
-0.381426 -0.256417 -0.570845
-0.225198 -0.275926 -0.543676
-0.114805 -0.275926 -0.577164
0 -0.275926 -0.588471
0.114805 -0.275926 -0.577164
0.225198 -0.275926 -0.543676
0.381427 -0.256417 -0.570845
0.554816 -0.236908 -0.554816
-0.815493 -0.19789 -0.544895
-0.359296 -0.125102 -0.537724
-0.212132 -0.16337 -0.512132
-0.108144 -0.16337 -0.543676
-1.98721e-22 -0.16337 -0.554327
0.108144 -0.16337 -0.543676
0.212132 -0.16337 -0.512132
0.359296 -0.125102 -0.537724
0.815493 -0.19789 -0.544895
-0.768177 -0.010296 -0.51328
-0.522625 -0.0868328 -0.522625
-0.587953 -0.0485644 -0.587953
-0.222732 -0.00407999 -0.537724
-0.113548 -0.00407999 -0.570845
0 -0.0596376 -0.498882
0 -0.00407999 -0.582029
0.113548 -0.00407999 -0.570845
0.222733 -0.00407999 -0.537724
0.522625 -0.0868328 -0.522625
0.587953 -0.0485644 -0.587953
0.768178 -0.010296 -0.51328
-0.369551 0.0514776 -0.553073
0.369552 0.0514776 -0.553073
-0.529144 0.107035 -0.529144
-0.587937 0.162591 -0.587938
-0.216478 0.172706 -0.522625
-0.11036 0.172706 -0.554816
0 0.172706 -0.565685
0.11036 0.172706 -0.554816
0.216478 0.172706 -0.522625
0.529144 0.107035 -0.529144
0.587938 0.162591 -0.587938
-0.353563 0.243416 -0.529144
-0.243538 0.243416 -0.587953
0.243538 0.243416 -0.587953
0.353563 0.243416 -0.529144
-0.5 0.314125 -0.5
-0.392847 0.314125 -0.587938
0 0.35534 -0.500013
0.392847 0.314125 -0.587938
0.5 0.314125 -0.5
-0.212607 0.438484 -0.513279
-0.108386 0.438484 -0.544895
0 0.438484 -0.55557
0.108386 0.438484 -0.544895
0.212608 0.438484 -0.51328
-0.604448 -1.01494 -0.402722
-0.43654 -1.01764 -0.436105
-0.256118 -1.02121 -0.442124
-0.164249 -1.01885 -0.464173
-0.0820379 -1.03536 -0.42281
0.000176003 -1.02014 -0.467158
0.0823542 -1.03545 -0.422764
0.164383 -1.01879 -0.463917
0.255706 -1.02126 -0.440214
0.436666 -1.01765 -0.436775
0.604491 -1.01494 -0.402772
-0.691341 -0.948558 -0.46194
-0.469593 -0.942367 -0.469813
-0.341472 -0.997165 -0.439424
-0.310173 -0.931519 -0.485073
[...]
POINT_DATA 3856
SCALARS scalar float
LOOKUP_TABLE default
2546.48
2546.48
2546.48
2546.48
2546.48
2546.48
2546.48
2546.48
2546.48
2546.48
2546.48
2546.48
2546.48
2546.48
2546.48
2546.48
2546.48
2546.48
2546.48
2546.48
2546.48
2546.48
2546.48
2546.48
2546.48
2546.48
2546.48
2546.48
2546.48
2546.48
2546.48
2546.48
2546.48
2546.48
2546.48
2546.48
2546.48
2546.48
2546.48
2546.48
2546.48
2546.48
2546.48
2546.48
2546.48
2546.48
2546.48
2546.48
2546.48
2546.48
2546.48
2546.48
2546.48
2546.48
2546.48
2546.48
2546.48
2546.48
2546.48
5101.41
5098.16
5101.42
2546.48
2546.48
2546.48
2550.13
2546.48
2546.48
2546.48
2546.48
2546.48
2546.48
2546.48
2546.48
2546.48
2546.48
2546.48
2546.48
2546.48
2546.48
2546.48
2546.48
2546.48
2546.48
2546.48
2546.48
2546.48
2546.48
2546.48
2546.48
2546.48
2546.48
2546.48
2546.48
2546.48
2546.48
2546.48
2546.48
2546.48
2546.48
2546.48
2546.48
2546.48
2546.48
2546.48
2546.48
2546.48
2546.48
2546.48
2546.48
5102.4
5102.24
5108.78
5121.24
5108.77
5102.18
5102.44
2546.48
2567.42
2554.34
2564.75
2554.34
2567.34
2546.48
2546.48
2546.52
2546.48
2546.48
2546.93
2546.48
2546.52
2546.48
2546.48
2546.48
2546.48
2546.48
2546.48
2546.48
2546.48
2546.48
2546.48
2546.48
2546.48
2546.48
2546.48
2546.48
2546.48
2546.48
2546.48
2546.48
2546.48
2546.48
2546.48
2546.48
2546.48
2546.48
2546.48
2546.48
2546.48
2546.48
2546.48
2546.48
2546.48
2546.48
2546.48
2546.48
2546.48
2546.48
2546.48
2546.48
2546.48
2546.48
2546.48
2546.48
2546.48
2546.48
2546.48
2546.48
2546.48
2546.48
2546.48
2546.48
2546.48
2546.48
2546.48
2546.48
2546.48
2546.48
2546.48
2546.48
2546.48
2546.48
2546.48
2546.48
2546.48
2546.48
2546.48
2546.48
2546.48
2546.48
2546.48
2546.48
2546.48
2546.48
2546.48
2546.48
2546.48
2546.48
5102.14
5113.2
5127.14
5120.72
5132.39
5133.28
5127.22
5113.63
5101.98
2546.48
2561.76
2648.52
2621.44
2614.52
2587.87
2570.08
2587.64
2615.03
2646.76
2620.73
2561.87
2546.48
2546.51
2546.48
2623.36
2546.48
2546.52
2546.48
2546.48
2546.48
2546.48
2546.48
2546.59
2546.48
2546.48
2546.48
2546.48
2546.48
2546.48
2546.48
2546.48
2546.48
2546.48
2546.48
2546.48
2546.48
2546.48
2546.48
2546.48
2546.48
2546.48
2546.48
2546.48
2546.48
2546.48
2546.48
2546.48
2546.48
2546.48
2546.48
2546.48
2546.48
2546.48
2546.48
2546.64
2546.48
2546.48
2546.48
2546.48
2546.48
2546.48
2546.48
2546.48
2546.48
2546.48
2546.48
2546.48
2546.48
2546.48
2546.48
2546.48
2546.48
2546.48
2546.48
2546.48
2546.48
2546.48
2546.48
2546.48
2546.48
2546.48
2546.48
2546.48
2546.48
2546.48
2546.59
2546.48
2546.48
2546.48
2546.48
2546.48
2546.48
2546.48
2546.48
2546.48
2546.48
2546.48
2546.48
2546.48
2546.48
2546.48
2546.48
2546.48
2546.48
2546.48
2546.48
2546.48
2546.48
2546.48
2546.56
2546.48
2546.48
2546.48
2546.48
2546.48
2546.48
2546.48
5102.4
5115.69
5164.47
5134.28
5629.54
5162.01
5626.43
5134.41
5165.46
5115.75
5102.46
2546.48
2563.7
2609.45
2577.55
2668.08
2644.17
2671.64
2678.31
2708.29
2674.18
2644
2672.34
2609.63
2577.62
2563.04
2546.48
2546.48
2624.26
2559.41
2614.12
2598.45
2593.92
2597.72
2599.13
2592.8
2597.39
2599.74
2613.08
2623.97
2559.27
2546.48
2546.48
2546.48
2546.48
2546.59
2546.59
2546.59
2546.59
2546.59
2546.59
2546.48
2546.48
2546.48
2546.48
2546.48
2546.48
2611.07
2611.07
2611.07
2546.48
2546.48
2546.48
2546.48
2546.48
2546.48
2546.48
2546.48
2555.14
2555.14
2555.14
2555.14
2555.14
2546.48
2546.48
2546.48
2546.48
2546.48
2547.15
2547.15
2547.15
2547.15
2547.15
2547.15
2547.15
2546.48
2546.48
2546.48
2546.64
2546.64
2546.64
2751.42
2546.64
2546.64
2546.64
2546.48
2546.48
2546.48
2546.48
2546.48
2546.48
2546.48
2546.48
2547.15
2547.15
2547.15
2555.14
2547.15
2555.14
2555.14
2547.15
2555.14
2547.15
2555.14
2547.15
2546.48
2546.48
2546.48
2546.48
2546.48
2546.48
2546.48
2611.07
2611.07
2611.07
2546.48
2546.48
2546.48
2546.48
2546.48
2546.48
2546.59
2546.59
2546.59
2546.59
2546.59
2546.59
2546.48
2546.48
2546.48
2546.48
2546.48
2595.03
2595.03
2595.03
2546.48
2546.48
2546.48
2546.48
2546.48
2546.75
2546.75
2546.74
2546.74
2546.74
2546.75
2546.75
2546.48
2546.48
2546.48
2546.48
2546.48
2568.2
2568.2
2568.2
2568.2
2568.2
2546.48
2546.56
2546.56
2546.56
2546.56
2546.56
2546.56
2546.48
2546.48
5113.42
5171.01
5146.92
5143.31
5190.74
5812.8
5819.99
5140.8
5147.22
5170.2
5113.2
2546.48
2561.65
2577.21
2608.96
2676.54
2693.69
2788.52
2779.58
3022.84
2730.82
3266.17
3338.14
3341.12
3026.33
2730.3
2776.73
2793.24
2687.11
2677.79
2610.63
2578.98
2561.81
2546.48
2546.48
2593.52
2603.79
2596.55
2595.67
3017.82
2979.87
3014.14
2992.43
2595.72
3019.38
2605.03
2596.48
2591.57
2546.48
2546.48
2546.48
2546.48
2546.59
2841.09
2841.08
2841.05
2841.05
2841.09
2546.59
2546.48
2546.48
2546.48
2546.48
2546.48
2546.48
2611.07
2611.07
3078.45
3078.43
3078.42
3078.43
2611.07
3078.44
2611.07
2546.48
2546.48
2546.48
2546.48
2546.48
2546.48
2546.48
2546.48
2555.14
2555.14
2862.15
2862.15
2862.15
2862.15
2862.15
2862.14
2555.14
2862.14
2555.14
2546.48
2546.48
2546.48
2546.48
2546.48
2547.15
2774.42
2774.42
2774.42
2774.41
2774.42
2774.42
2774.41
2547.15
2546.48
2546.48
2546.48
2546.48
2546.48
2546.64
2751.43
2774.39
2751.42
2774.39
4074.38
2751.42
2774.39
2774.39
2751.42
2774.39
2751.42
2774.39
2751.41
2774.39
2546.64
2546.48
2546.48
2546.48
2546.48
2546.48
2546.48
2546.48
2546.48
2546.48
2555.14
2547.15
2555.14
2862.06
2862.06
2862.06
2862.06
2862.06
2862.06
2555.14
2862.06
2547.15
2555.14
2546.48
2546.48
2546.48
2546.48
2546.48
2546.48
2546.48
2546.48
2611.07
3078.29
2611.07
3078.28
3078.27
3078.28
3078.29
2611.07
2611.07
2546.48
2546.48
2546.48
2546.48
2546.48
2546.48
2546.48
2546.59
2841.03
2841.04
2841.03
2841.04
2841.03
2546.59
2546.48
2546.48
2546.48
2546.48
2595.03
2595.03
2595.04
2595.04
2595.03
2595.03
2546.48
2546.48
2546.48
2546.74
2683.15
2970.36
2683.15
2683.15
2970.37
2970.35
2683.16
2683.15
2970.35
2683.14
2970.36
2683.15
2546.74
2546.48
2546.48
2546.48
2568.2
2568.2
2568.2
2568.2
2546.48
2546.48
2546.56
3197.64
3197.64
3197.64
2546.56
2546.48
2546.48
2546.48
2895.59
2895.59
2895.59
2895.59
2895.59
2546.48
2546.48
2705.27
2705.28
2705.27
2705.27
2705.27
2705.27
2705.27
5102.28
5127.1
5164.68
5146.95
5883.54
6675.23
5998.33
7020.17
6374.85
5868.77
6422.18
5977.02
6840.22
5828.33
5147.16
5165
5126.97
5102.15
2567.67
2621.62
2648.82
2668.03
2786.9
3493.11
3667.38
3022.46
3234.73
3232.59
4277.88
3353.53
3675.6
3669.73
3781.83
4322.99
4725.16
4646.29
3866.41
4334.46
3653.02
3235.23
3360.94
3669.27
4270.14
3332.56
3692.34
3249.11
3027.03
2672.6
2796.9
2647.23
2620.39
2567.17
2546.53
2546.48
2614.44
2596.55
2735.29
3046.32
3502.32
2971.72
4248.81
3536.86
5191.15
3509.73
3534.48
4251.38
3509.84
4134.94
3502.47
2976.2
3537.88
2733.24
3055.68
2596.47
2612.83
2546.48
2546.52
2546.48
2546.59
2841.05
2841.1
2841.05
4524.28
4524.24
4524.13
4524.11
4524.29
2841.05
2841.1
2841.05
2546.59
2546.48
2546.48
2546.48
2546.48
2611.07
2611.07
3078.45
3554.56
3554.57
3554.55
3078.44
3554.58
3554.56
5787.58
5787.56
5787.59
3554.57
5787.61
5787.59
3078.42
3554.53
3554.55
3554.52
3078.42
2611.07
2611.07
2546.48
2546.48
2546.48
2546.48
2546.48
2862.14
2555.14
2862.15
4401.72
4401.69
4401.71
4900.04
4900.09
4900.08
4900.08
4401.7
4401.7
4900.07
4900.08
4401.71
4900.1
4401.7
4401.72
4401.7
2862.13
2862.13
2555.14
2546.48
2546.48
2547.15
2774.42
2774.42
4150.19
4150.2
4150.2
4150.2
4150.2
4150.19
4150.19
4150.2
4150.21
2774.42
2774.41
2547.15
2546.48
2546.48
2546.48
2546.64
2774.39
2751.42
2774.39
2751.42
4074.37
4150.17
4150.18
4074.37
4074.37
4150.18
4150.18
4150.17
4074.38
4150.17
4074.37
4150.18
4150.17
4074.37
4074.37
2774.39
4150.19
4074.37
2751.41
2774.39
2751.41
2546.64
2546.48
2546.48
2546.48
2546.48
2546.48
2547.15
2862.05
2555.14
2862.06
4401.62
4401.6
4401.59
4899.97
4899.92
4401.59
4401.6
4899.95
4899.95
4401.6
4899.96
4899.95
4401.62
4401.6
4401.6
4899.97
2862.06
2555.14
2862.05
2547.15
2546.48
2546.48
2546.48
2546.48
2611.07
3554
2611.07
3078.29
3078.28
3553.98
3553.99
5787.1
5787.08
5787.07
3554
3553.98
5787.11
5787.1
3554
3078.28
3553.99
3553.98
3554
2611.07
3078.28
2611.07
2546.48
2546.48
2546.48
2546.48
2546.59
2841.04
2841.03
2841.03
4523.02
4523.02
4523.01
4523.05
4523.02
2841.03
2841.04
2841.03
2546.59
2546.48
2546.48
2546.48
2595.03
3508.85
3508.89
3508.86
3508.86
3508.87
3508.85
3508.85
3508.86
3508.84
2595.03
2546.48
2546.48
2546.48
2546.75
2683.15
2970.36
2683.15
2970.35
4246.58
4246.54
4246.51
4246.54
4246.54
2970.37
2970.36
2683.15
2683.15
2546.75
2546.48
2546.48
2546.48
2568.2
3637.2
3637.22
3637.19
3637.24
3637.2
3637.19
3637.22
2568.2
2546.48
2546.48
2546.56
3197.62
3197.63
3197.62
3197.63
3197.62
3197.62
2546.56
2546.48
2546.48
2895.6
2895.59
2895.59
2895.59
2546.48
2705.28
2705.26
5018.01
2705.27
2705.27
5101.4
5133.92
5143.99
6814.63
6007.44
7545.47
6790.74
7547.57
10392.8
7495.59
6826.6
7531.57
6669.75
6026.58
5141.59
5135.03
5101.48
2546.48
2554.3
2614.16
2587.15
2672.07
2643.63
2779.35
3342.77
3675.41
4271.35
7395.15
6418.26
6089.93
8539.17
4335.01
7360.91
7478.49
7397.75
8539.51
8532.15
8565.2
8691.1
6331.08
3852.22
7429.77
7397.81
7482.25
8521.99
8507.29
8552.76
8524.31
7472.3
6227.72
4312.55
4282.6
6054.42
3356.06
3671.64
2778.42
2646.31
2672.78
2614.44
2587.64
2554.28
2546.48
2546.48
2546.48
2594.99
2598.26
3017.53
2595.68
2967.91
4222.98
3502.04
3536.95
3535.77
5188.03
5187.33
5179.56
10166.4
10169.3
5183.04
5189.12
10170.7
5192.81
5182.71
3537.73
5185.89
5186.59
5180.63
4209.65
2972.92
3020.66
3502.39
3537.94
2595.71
2591.69
2599.41
2546.48
2546.48
2546.48
2546.48
2546.48
2546.59
2546.59
2841.09
6611.75
4524.39
4524.1
4524.05
6611.97
6612.6
6612.95
6612.51
6612.12
6612.56
6612.75
6611.93
4523.98
4524.05
4524.38
2841.09
2546.59
2546.59
2546.48
2546.48
2546.48
2546.48
2546.48
2546.48
3078.43
2611.07
3078.44
3554.53
3554.53
7414.64
5787.57
5787.58
5787.58
7414.74
7414.69
7414.74
7414.69
10938.5
10938.5
10938.6
10938.6
7414.69
7414.73
7414.68
10938.6
10938.6
10938.6
5787.58
7414.65
5787.58
5787.58
3078.41
3554.48
3554.48
3078.42
2611.07
2546.48
2546.48
2546.48
2546.48
2546.48
2546.48
2546.48
2546.48
2555.14
2862.14
4401.7
4401.7
4900.09
4900.08
4900.13
4900.13
4401.69
4401.7
4900.05
4900.1
2862.13
2555.14
2546.48
2546.48
2546.48
2546.48
2546.48
2547.15
2547.15
2774.42
4150.19
4150.2
4150.18
4150.19
2774.41
2547.15
2547.15
2546.48
2546.48
2546.48
2546.48
2546.64
2546.64
2774.39
2751.42
4150.18
4150.17
4074.37
4074.38
4150.15
4150.17
4074.37
4074.36
2774.39
2751.42
2546.64
2546.64
2546.48
2546.48
2546.48
2546.48
2546.48
2546.48
2546.48
2546.48
2547.15
2547.15
2555.14
2862.06
4401.6
4401.6
4899.97
4899.96
4900
4900
4401.6
4401.59
4899.97
4899.92
2862.06
2547.15
2547.15
2555.14
2546.48
2546.48
2546.48
2546.48
2546.48
2546.48
2546.48
3078.28
2611.07
3078.29
3553.98
3553.99
5787.08
5787.09
5787.09
7413.99
7414.04
7414.09
7414.08
7414.04
10934
10934.1
10934.1
10934.1
7414.04
7414.08
7414.03
10934.1
10934.1
10934.1
5787.08
5787.08
5787.09
7413.99
3078.28
3553.98
3553.99
2611.07
3078.29
2546.48
2546.48
2546.48
2546.48
2546.48
2546.48
2546.48
2546.59
2546.59
2841.03
4523.02
4522.99
4523.02
6600.71
6600.69
6600.67
6600.68
6600.7
6600.67
6600.69
6600.7
6600.71
4522.99
4523.02
4523.02
2841.03
2546.59
2546.59
2546.48
2546.48
2546.48
2546.48
2546.48
2595.04
3508.86
3508.84
5118.6
5118.58
5118.58
5118.6
5118.62
5118.59
10088.9
10088.9
5118.62
5118.6
10088.9
5118.58
5118.6
5118.58
3508.85
3508.86
2595.04
2546.48
2546.48
2546.48
2546.48
2546.74
2546.75
2970.36
2683.15
2970.37
4246.54
4246.49
4246.54
8376.22
8376.19
8376.2
8376.19
8376.22
8376.19
8376.19
4246.54
4246.54
4246.56
2970.35
2970.36
2683.14
2546.74
2546.75
2546.48
2546.48
2546.48
2546.48
2568.2
3637.2
3637.22
3637.17
7164.64
7164.71
7164.75
7164.75
7164.67
7164.75
7164.71
7164.64
7164.67
3637.17
3637.22
3637.2
2568.2
2546.48
2546.48
2546.56
2546.56
3197.62
3197.63
6271.62
6271.65
6271.62
6271.62
6271.66
6271.62
6271.62
6271.65
6271.62
3197.62
3197.63
2546.56
2546.56
2546.48
2546.48
2895.58
2895.59
5583.38
5583.42
5583.38
5583.35
5583.38
5583.4
5583.36
5583.37
5583.35
5583.37
5583.38
2895.59
2895.59
2546.48
2705.27
5017.93
5017.98
5017.98
5017.98
5017.99
5017.98
5017.99
5017.98
5017.98
5017.93
2705.27
5098.18
5108.55
5121.26
5132.95
5120.6
5163.03
5636.1
5815.37
5190.81
7033.66
6328.4
5866.03
9073.6
7451.08
6894.98
5217.06
6777.06
6860.16
7053.2
9734.68
7300.65
6990.35
6444.53
5835.7
5186.04
5830
5626.01
5158.29
5120.44
5133.82
5108.8
5121.22
5098.17
2546.48
2564.63
2569.73
2679.18
2709.1
2730.25
3025.35
3270.04
3339.7
3890.26
3778.46
4839.19
3661.12
4316.54
7386.46
7364.12
8474.46
6390.58
8548.16
8427.21
8533.25
7182.25
2739.14
2745.7
7439.27
8534.5
8315.58
8501.56
8503.94
7263.02
6035.54
7239.1
3876.51
4337.49
3815.55
3647.82
4526.22
3341.01
3264.33
3022.12
2732.36
2703.01
2675.45
2569.94
2564.69
2546.48
2549.95
2546.97
2623.47
2599.14
2597.76
3013
2980.24
3509.7
3534.57
4251.42
5191.42
5183.5
5189.84
10195.7
10200.8
2683.92
10158.7
10168.5
10193.5
10191
10180.5
10181.1
10165.3
10183.9
10154.4
10134.9
10124.8
10135.2
5182.2
5193.77
5194.61
3535.04
3509.87
4250.12
2989.02
3015.26
2597.41
2599
2622.79
2546.79
2550.47
2546.48
2546.48
2546.59
2546.48
2841.05
2841.08
4524
4524.23
4524.07
6610.09
6610.93
6611.12
6609.9
12339.9
12339.8
4200.63
12333.9
12333.9
12351.5
12412.7
12388.9
12368.1
12351.5
12438.3
12464.6
12490.4
12368.1
12388.9
12412.7
12536.9
12514.8
6610.03
6611.33
6611.08
6610.28
4524.15
4523.91
4523.94
2841.05
2841.08
2546.59
2546.48
2546.48
2546.48
2546.48
2546.48
2546.48
2611.07
2611.07
3078.41
3078.42
5787.55
5787.57
5787.6
3554.48
3554.51
7414.69
7414.74
10938.6
10938.6
10938.5
10938.6
7414.74
7414.69
18928.5
18928.8
18928.5
18928.4
18928.3
18928.7
18928.5
13983.2
18928.3
18928.4
10938.6
18929.9
18928.6
18928.8
18929
18929.2
18929.4
18929.7
18930.1
10938.7
10938.6
7414.71
7414.73
10938.7
10938.7
10938.7
7414.7
7414.69
5787.61
3554.46
3554.43
5787.61
5787.58
3078.4
3078.39
2611.07
2611.07
2546.48
2546.48
2546.48
2546.48
2546.48
2546.48
2546.48
2546.48
2555.14
2555.14
2862.14
2862.14
4900.07
4401.71
4401.71
4900.08
4900.08
4900.08
4401.71
4401.7
2862.12
2862.13
2555.14
2555.14
2546.48
2546.48
2546.48
2546.48
2546.48
2547.15
2774.42
2774.41
4150.21
4150.2
4150.2
4150.2
2774.41
2774.4
2547.15
2546.48
2546.48
2546.48
2546.48
2546.48
2546.64
2751.42
4074.37
2751.42
2774.39
2774.39
4074.38
4150.18
4150.19
4074.37
4074.38
4150.17
4150.17
2751.42
2751.42
2774.39
2774.38
2546.64
2546.48
2546.48
2546.48
2546.48
2546.48
2546.48
2546.48
2546.48
2546.48
2547.15
2555.14
2555.14
2862.06
2862.06
4899.95
4899.95
4401.6
4401.6
4401.6
4401.59
4899.95
4899.95
2862.06
2862.05
2547.15
2555.14
2555.14
2546.48
2546.48
2546.48
2546.48
2546.48
2546.48
2546.48
2611.07
2611.07
3078.28
3078.27
3553.98
3554
5787.06
5787.08
5787.1
7414.04
7414.08
7414.09
7414.04
10934
10934.1
10934.1
10934.1
10934.1
10934.1
10934.1
5787.11
7414.05
7414.03
7414.07
7414.04
10934.1
10934.1
10934.1
5787.08
5787.1
3553.98
3554
3078.27
3078.28
2611.07
2611.07
2546.48
2546.48
2546.48
2546.48
2546.48
2546.48
2546.48
2546.59
2841.04
2841.03
4523.02
4523.05
4523.02
6600.69
6600.7
6600.68
6600.67
19066.6
19066.6
19066.6
19066.7
19066.6
19066.6
13935.7
19066.6
19066.6
19066.6
19066.6
19066.5
19066.5
19066.6
19066.6
19066.5
19066.5
19066.5
6600.68
6600.7
6600.69
6600.67
4523.02
4522.98
4523.05
2841.04
2841.03
2546.59
2546.48
2546.48
2546.48
2546.48
2546.48
2595.03
2595.03
3508.85
3508.87
5118.59
5118.62
5118.6
10088.9
10088.9
12877.7
4185.71
12877.8
12877.8
12877.8
12877.8
12877.8
12877.8
12877.7
12877.8
10088.9
10088.9
10088.8
10088.9
10088.9
12877.8
12877.8
12877.7
12877.8
12877.8
12877.8
12877.8
12877.7
10088.9
10088.9
10088.9
10088.8
10088.9
10088.9
10088.9
5118.6
5118.59
5118.62
3508.85
3508.87
2595.03
2595.03
2546.48
2546.48
2546.48
2546.48
2546.75
2970.35
2970.35
2683.15
2683.15
4246.58
4246.54
4246.51
8376.19
8376.19
8376.22
8376.2
2547.75
8376.23
8376.22
8376.23
8376.2
8376.19
8376.19
4246.54
4246.54
4246.51
2683.15
2970.37
2970.35
2683.16
2546.75
2546.48
2546.48
2546.48
2546.48
2568.2
2568.2
3637.24
3637.19
7164.67
7164.75
7164.75
7164.71
2546.48
7164.67
7164.71
7164.75
7164.75
3637.24
3637.19
2568.2
2568.2
2546.48
2546.48
2546.56
3197.64
3197.64
6271.65
6271.62
6271.62
6271.66
2546.48
6271.62
6271.66
6271.62
6271.65
3197.64
3197.64
2546.56
2546.48
2546.48
2895.59
2895.59
5583.38
5583.39
5583.34
2546.48
5583.38
5583.39
5583.34
2895.59
2895.59
2546.48
2705.27
2705.27
5018.01
5017.98
5017.99
2546.48
5018.01
5017.99
5017.98
2705.27
2705.27
5092.96
5108.86
5132.87
5626.58
5817.05
6430.45
7542
6749.34
6859.3
6916.58
6780.97
7229.12
6454.79
5819.31
5653.15
5132.01
5110.67
2587.57
2674.71
2729.59
3028.28
3342.96
4331.72
5014.77
3658.73
3957.64
8706.91
7372.56
7123.16
7086.95
8654.31
8436.22
8673.38
2730.5
7446.26
8536.47
2774.02
8535.11
7244.28
7281.41
7388.86
8552.21
3866.53
8569.49
4659.31
3659.86
4337.61
2730.4
3025.23
3333.52
2669.73
2587.77
2593.2
2597.42
2989.15
4097.56
3509.8
10174.8
5182.47
5189.65
10136
9890.31
10025.2
9761.86
10142.1
10155.4
10114.1
10148.1
9692.74
9754.09
9898.07
9681.81
9670.57
10049.9
5180.18
5191.86
3509.8
4182.73
2979.25
2598.14
2596.24
2546.59
2841.05
4524.03
4523.92
6609.02
6608.11
6608.86
12572.2
12584.3
12556.5
12464.7
12537.2
12515.1
12438.4
12490.6
12583.9
12596.3
12592.3
12592.1
12596.2
12556
12571.8
6608.95
6608.1
6609.15
4524.01
4523.83
2841.05
2546.59
2611.07
3078.41
5787.58
5787.6
3554.47
7414.74
7414.74
7414.69
10938.6
10938.6
10938.6
18929.9
18929
18929.6
18929.4
18929.2
10938.6
18930.3
18930.4
18930.1
10938.7
18930.6
18930.5
18930.6
18930.6
18930.7
18930.4
10938.7
10938.7
10938.7
18930.6
10938.7
7414.69
7414.7
7414.74
10938.7
5787.62
3554.42
5787.6
3078.39
2611.07
2555.14
2862.13
4900.08
4900.05
4401.71
4900.08
4900.07
4401.71
2862.12
2555.14
2547.15
2774.42
4150.2
4150.2
2774.41
2547.15
2546.64
2751.42
2774.39
4150.18
4074.38
4074.38
4150.17
2751.42
2774.39
2546.64
2547.15
2555.14
2862.06
4401.6
4899.95
4899.92
4401.6
4899.96
4899.95
2862.06
2555.14
2547.15
2611.07
3078.28
3554
5787.08
5787.1
10934.1
10934
10934.1
7414.04
7414.09
7414.09
10934.1
10934
10934
10934
10934.1
7414.03
7414.04
7414.08
5787.11
10934.1
10934.1
3554
5787.1
3078.28
2611.07
2546.59
2841.04
4523.01
4523.02
6600.69
6600.67
6600.7
19066.6
19066.6
19066.6
19066.6
19066.7
19066.6
19066.6
19066.7
19066.6
19066.6
19066.6
19066.6
19066.7
19066.6
19066.6
6600.69
6600.7
6600.67
4523.02
4523.05
2841.04
2546.59
2595.03
3508.86
5118.62
5118.6
10088.9
12877.7
12877.8
12877.8
12877.7
12877.8
12877.8
12877.8
12877.8
10088.9
10088.9
10088.9
10088.9
10088.9
10088.9
10088.8
12877.8
12877.7
12877.8
12877.8
10088.9
10088.9
10088.9
10088.9
10088.9
10088.9
10088.8
12877.7
12877.8
12877.8
5118.6
5118.62
3508.86
2595.03
2546.74
2970.37
2683.15
4246.54
4246.58
8376.19
8376.19
8376.22
8376.22
8376.23
8376.22
8376.22
8376.23
8376.19
8376.19
4246.54
4246.54
2970.35
2683.15
2546.74
2568.2
3637.2
3637.19
7164.75
7164.67
7164.64
7164.71
7164.64
7164.75
7164.71
7164.67
3637.2
3637.19
2568.2
2546.56
3197.64
6271.62
6271.62
6271.65
6271.65
6271.62
6271.62
3197.64
2546.56
2895.59
5583.38
5583.34
5583.38
5583.34
5583.38
5583.38
2895.59
2705.27
5017.99
5017.98
5017.99
5017.98
2705.27
5101.4
5134.31
5140.99
6020.64
6700.51
6811.83
7432.22
6868.92
7499.89
7391.33
6930.55
9670.93
7883.38
7224.8
6824.88
5978.12
5141.12
5136.34
5101.42
2546.48
2554.38
2614.69
2643.25
2774.85
3239.42
3348.72
3670.75
4278.08
4271.34
7203.13
6017.33
5693.02
3896.68
8622.61
6284.05
7327.83
7270.23
7463.99
8689.37
8743.65
8580.75
3916.63
7422.85
7403.61
7488.88
8490.54
8499.11
8517.56
7473.9
4325.75
6394.16
4283.89
3699.26
3252.23
3355.48
2781.09
2645.31
2613.29
2554.81
2546.48
2546.48
2546.48
2599.5
3017.84
2595.71
2972.17
3502.38
3537.64
3536.73
5184.07
5182.9
5183.01
5194.02
5179.46
5190.7
5194.39
5185.1
5191.35
5187.71
5181.64
3537.46
2972.59
3020.55
3502.65
3538.5
2595.65
2598.9
2546.48
2546.48
2546.48
2546.48
2546.48
2546.59
2841.09
2841.05
4523.76
6607.89
4524.11
4523.82
6607.08
6607.46
6607.2
6607.43
6607.38
6607.08
6607.42
4523.76
4524.11
4523.71
6607.87
2841.05
2841.09
2546.59
2546.48
2546.48
2546.48
2546.48
2546.48
2546.48
3078.42
2611.07
3078.4
3554.41
3554.45
3554.42
5787.58
5787.59