# vtk DataFile Version 3.0
Happy Go Lucky
ASCII
DATASET POLYDATA
POINTS 3856 float
0 -0.490978 -1
-0.18024 -0.873669 -0.906127
0 -0.873669 -0.923879
0.18024 -0.873669 -0.906127
-0.37533 -0.686071 -0.906127
-0.191341 -0.686071 -0.961939
0 -0.686071 -0.980785
0.191342 -0.686071 -0.96194
0.37533 -0.686071 -0.906127
-0.382683 -0.490978 -0.923879
-0.19509 -0.490978 -0.980784
0 -0.490978 -0.9
0.19509 -0.490978 -0.980785
0.382683 -0.490978 -0.923879
-0.37533 -0.29589 -0.906127
-0.191341 -0.29589 -0.961939
0 -0.29589 -0.980785
0.191342 -0.29589 -0.96194
0.37533 -0.29589 -0.906127
-0.18024 -0.108296 -0.906127
0 -0.108296 -0.923879
0.18024 -0.108296 -0.906127
-0.16356 -1.01362 -0.818999
-0.000681782 -1.0135 -0.88006
0.163645 -1.01362 -0.819152
-0.353553 -0.873669 -0.853553
-0.162216 -0.8354 -0.815514
0 -0.8354 -0.831491
0.162216 -0.8354 -0.815515
0.353553 -0.873669 -0.853553
-0.544895 -0.686071 -0.815493
-0.337797 -0.666562 -0.815514
-0.172207 -0.666562 -0.865745
0 -0.666562 -0.882707
0.172208 -0.666562 -0.865746
0.337797 -0.666562 -0.815515
0.544895 -0.686071 -0.815493
-0.555569 -0.490978 -0.831469
-0.344414 -0.490978 -0.831491
-0.175581 -0.490978 -0.882706
0 -0.490978 -0.8
0.175581 -0.490978 -0.882707
0.344415 -0.490978 -0.831492
0.55557 -0.490978 -0.831469
-0.337797 -0.315399 -0.815514
-0.172207 -0.315399 -0.865745
0 -0.315399 -0.882707
0.172208 -0.315399 -0.865746
0.337797 -0.315399 -0.815515
-0.544895 -0.29589 -0.815493
0.544895 -0.29589 -0.815493
-0.353553 -0.108296 -0.853553
-0.162216 -0.146564 -0.815514
0 -0.146564 -0.831491
0.162216 -0.146564 -0.815515
0.353553 -0.108296 -0.853553
-0.162211 0.0645911 -0.815493
0 0.0645911 -0.83147
0.162212 0.0645911 -0.815493
-0.465269 -1.01359 -0.695156
-0.327649 -1.01355 -0.793997
-0.302748 -1.01744 -0.701243
-0.108457 -1.01636 -0.737123
0.00440138 -1.01717 -0.784382
0.10827 -1.01639 -0.73778
0.302842 -1.01747 -0.701181
0.327636 -1.01355 -0.794033
-0.284155 -0.931809 -0.705854
-0.160311 -0.942182 -0.74179
-0.00435063 -0.931135 -0.768991
0.160313 -0.942193 -0.74178
0.284092 -0.931873 -0.70604
-0.51328 -0.873669 -0.768177
-0.318198 -0.8354 -0.768198
0.318198 -0.8354 -0.768198
0.51328 -0.873669 -0.768178
-0.144192 -0.797131 -0.724902
0 -0.797131 -0.739103
0.144192 -0.797131 -0.724902
-0.490405 -0.666562 -0.733944
-0.300264 -0.647053 -0.724902
-0.153073 -0.647053 -0.769551
0 -0.647053 -0.784628
0.153073 -0.647053 -0.769552
0.300264 -0.647053 -0.724902
0.490406 -0.666562 -0.733944
-0.707106 -0.490978 -0.707106
-0.500012 -0.490978 -0.748322
-0.306146 -0.490978 -0.739103
-0.156072 -0.490978 -0.784627
0 -0.490978 -0.7
0.156072 -0.490978 -0.784628
0.306147 -0.490978 -0.739104
0.500013 -0.490978 -0.748323
0.707107 -0.490978 -0.707107
-0.490405 -0.315399 -0.733944
-0.300264 -0.334908 -0.724902
-0.153073 -0.334908 -0.769551
0 -0.334908 -0.784628
0.153073 -0.334908 -0.769552
0.300264 -0.334908 -0.724902
0.490406 -0.315399 -0.733944
-0.51328 -0.108296 -0.768177
-0.318198 -0.146564 -0.768198
-0.144192 -0.184833 -0.724902
0 -0.184833 -0.739103
0.144192 -0.184833 -0.724902
0.318198 -0.146564 -0.768198
0.51328 -0.108296 -0.768178
-0.318189 0.0645911 -0.768177
-0.14599 0.00903517 -0.733943
0 0.00903517 -0.748323
0.145991 0.00903517 -0.733944
0.31819 0.0645911 -0.768178
0 0.216125 -0.707107
-0.391069 -1.01782 -0.632421
-0.253006 -1.01695 -0.620198
-0.178563 -1.00288 -0.674886
-0.08724 -1.0153 -0.642136
-0.00169158 -1.01834 -0.59596
-0.0048025 -1.01878 -0.690097
0.0834 -1.0149 -0.643934
0.177493 -1.00326 -0.674857
0.252237 -1.01681 -0.620524
0.391112 -1.01781 -0.632098
0.465177 -1.01359 -0.695054
-0.428684 -0.937678 -0.625801
-0.322204 -0.960524 -0.627102
-0.257172 -0.910194 -0.622878
-0.129149 -0.928843 -0.658002
0.00902926 -0.933181 -0.606984
0.027353 -0.939536 -0.689724
0.12938 -0.928792 -0.657745
0.257713 -0.909238 -0.623579
0.322035 -0.960506 -0.627493
0.428568 -0.937572 -0.625934
-0.653281 -0.873669 -0.653281
-0.461952 -0.8354 -0.69136
-0.00828192 -0.870128 -0.671384
0.461952 -0.8354 -0.69136
0.653281 -0.873669 -0.653281
-0.410624 -0.797131 -0.614542
-0.247487 -0.758861 -0.597487
-0.282843 -0.797131 -0.682842
-0.126168 -0.758861 -0.634289
0 -0.758861 -0.646715
0.126168 -0.758861 -0.634289
0.247487 -0.758861 -0.597487
0.282843 -0.797131 -0.682843
0.410624 -0.797131 -0.614542
-0.693519 -0.686071 -0.69352
-0.624167 -0.666562 -0.624168
-0.435916 -0.647053 -0.652394
-0.262731 -0.627544 -0.634289
-0.133939 -0.627544 -0.673357
0 -0.627544 -0.68655
0.133939 -0.627544 -0.673358
0.262731 -0.627544 -0.634289
0.435916 -0.647053 -0.652394
0.69352 -0.686071 -0.69352
0.624168 -0.666562 -0.624168
-0.636395 -0.490978 -0.636396
-0.444455 -0.490978 -0.665175
-0.267878 -0.490978 -0.646715
-0.136563 -0.490978 -0.686549
0 -0.490978 -0.6
0.136563 -0.490978 -0.68655
0.267878 -0.490978 -0.646716
0.444456 -0.490978 -0.665176
0.636396 -0.490978 -0.636396
-0.624167 -0.315399 -0.624168
-0.435916 -0.334908 -0.652394
-0.262731 -0.354416 -0.634289
-0.133939 -0.354416 -0.673357
0 -0.354416 -0.68655
0.133939 -0.354416 -0.673358
0.262731 -0.354416 -0.634289
0.435916 -0.334908 -0.652394
0.624168 -0.315399 -0.624168
-0.693519 -0.29589 -0.69352
-0.247487 -0.223103 -0.597487
-0.126168 -0.223103 -0.634289
0 -0.223103 -0.646715
0.126168 -0.223103 -0.634289
0.247487 -0.223103 -0.597487
0.69352 -0.29589 -0.69352
-0.653281 -0.108296 -0.653281
-0.410624 -0.184833 -0.614542
-0.461952 -0.146564 -0.69136
-0.282843 -0.184833 -0.682842
0.282843 -0.184833 -0.682843
0.410624 -0.184833 -0.614542
0.461952 -0.146564 -0.69136
0.653281 -0.108296 -0.653281
-0.254551 -0.0465224 -0.614542
-0.129769 -0.0465224 -0.652394
0 -0.0465224 -0.665176
0.129769 -0.0465224 -0.652394
0.254552 -0.0465224 -0.614542
-0.415745 0.00903517 -0.622207
-0.461939 0.0645911 -0.691341
-0.28637 0.00903517 -0.69136
0.286371 0.00903517 -0.69136
0.415746 0.00903517 -0.622207
0.46194 0.0645911 -0.691342
-0.124155 0.145415 -0.624168
0 0.145415 -0.636396
0.124155 0.145415 -0.624168
-0.270598 0.216125 -0.653281
-0.13795 0.216125 -0.69352
0.13795 0.216125 -0.69352
0.270598 0.216125 -0.653281
-0.594743 -1.01441 -0.594888
-0.528886 -1.01947 -0.522417
-0.420397 -1.00977 -0.542114
-0.324699 -1.01735 -0.555844
-0.165251 -1.01882 -0.58374
-0.0815865 -1.02146 -0.545956
0.000287182 -1.02085 -0.50136
0.0790535 -1.01957 -0.547782
0.163567 -1.01886 -0.583947
0.325195 -1.01741 -0.55681
0.42059 -1.00905 -0.541947
0.523923 -1.01985 -0.528059
0.5949 -1.01437 -0.594803
-0.554062 -0.940774 -0.55396
-0.482064 -0.949727 -0.500474
-0.307123 -0.949326 -0.499938
-0.369597 -0.931087 -0.5549
-0.237977 -0.985222 -0.539213
-0.175805 -0.92754 -0.502802
-0.188984 -0.935335 -0.587723
-0.100439 -0.946463 -0.583611
-0.0304852 -0.95147 -0.536229
0.098506 -0.945642 -0.584437
0.176096 -0.927844 -0.505327
0.191217 -0.9369 -0.588208
0.237976 -0.989168 -0.538602
0.305791 -0.950354 -0.500221
0.369165 -0.931189 -0.5546
0.55386 -0.940754 -0.553946
-0.768177 -0.873669 -0.51328
-0.498588 -0.873202 -0.496859
-0.587953 -0.8354 -0.587953
-0.227105 -0.87298 -0.539422
-0.0988583 -0.812536 -0.499721
-0.119427 -0.868077 -0.58155
-0.0852389 -0.893796 -0.507893
-0.00192512 -0.854546 -0.58746
-0.00118569 -0.808507 -0.497896
0.0985059 -0.812333 -0.499936
0.00976766 -0.889832 -0.511313
0.0928644 -0.895392 -0.510689
0.119668 -0.866995 -0.584348
0.227746 -0.871805 -0.540522
0.496345 -0.872959 -0.499825
0.587953 -0.8354 -0.587953
0.768178 -0.873669 -0.51328
-0.522931 -0.796172 -0.522947
-0.359296 -0.758861 -0.537724
-0.212132 -0.720592 -0.512132
-0.108144 -0.720592 -0.543676
-1.45093e-18 -0.720592 -0.554327
0.108144 -0.720592 -0.543676
0.212132 -0.720592 -0.512132
0.359296 -0.758861 -0.537724
0.522965 -0.796138 -0.522931
-0.815493 -0.686071 -0.544895
-0.554815 -0.647053 -0.554816
-0.381426 -0.627544 -0.570845
-0.225198 -0.608034 -0.543676
-0.114805 -0.608034 -0.577164
-5.13946e-25 -0.608034 -0.588471
0.114805 -0.608034 -0.577164
0.225198 -0.608034 -0.543676
0.381427 -0.627544 -0.570845
0.554816 -0.647053 -0.554816
0.815493 -0.686071 -0.544895
-0.831468 -0.490978 -0.55557
-0.748322 -0.490978 -0.500013
-0.565685 -0.490978 -0.565685
-0.388898 -0.490978 -0.582028
-0.333342 -0.490978 -0.498881
-0.22961 -0.490978 -0.554327
-0.117054 -0.490978 -0.588471
-2.04485e-09 -0.490978 -0.5
0.117054 -0.490978 -0.588471
0.22961 -0.490978 -0.554328
0.388899 -0.490978 -0.582029
0.333342 -0.490978 -0.498882
0.565685 -0.490978 -0.565685
0.748323 -0.490978 -0.500013
0.83147 -0.490978 -0.55557
-0.554815 -0.334908 -0.554816
-0.381426 -0.354416 -0.570845
-0.225198 -0.373925 -0.543676
-0.114805 -0.373925 -0.577164
0 -0.373925 -0.588471
0.114805 -0.373925 -0.577164
0.225198 -0.373925 -0.543676
0.381427 -0.354416 -0.570845
0.554816 -0.334908 -0.554816
-0.815493 -0.29589 -0.544895
-0.359296 -0.223103 -0.537724
-0.212132 -0.261371 -0.512132
-0.108144 -0.261371 -0.543676
-2.70347e-22 -0.261371 -0.554327
0.108144 -0.261371 -0.543676
0.212132 -0.261371 -0.512132
0.359296 -0.223103 -0.537724
0.815493 -0.29589 -0.544895
-0.768177 -0.108296 -0.51328
-0.522625 -0.184833 -0.522625
-0.587953 -0.146564 -0.587953
-0.222732 -0.10208 -0.537724
-0.113548 -0.10208 -0.570845
0 -0.157638 -0.498882
0 -0.10208 -0.582029
0.113548 -0.10208 -0.570845
0.222733 -0.10208 -0.537724
0.522625 -0.184833 -0.522625
0.587953 -0.146564 -0.587953
0.768178 -0.108296 -0.51328
-0.369551 -0.0465224 -0.553073
0.369552 -0.0465224 -0.553073
-0.529144 0.00903517 -0.529144
-0.587937 0.0645911 -0.587938
-0.216478 0.0747058 -0.522625
-0.11036 0.0747058 -0.554816
0 0.0747058 -0.565685
0.11036 0.0747058 -0.554816
0.216478 0.0747058 -0.522625
0.529144 0.00903517 -0.529144
0.587938 0.0645911 -0.587938
-0.353563 0.145415 -0.529144
-0.243538 0.145415 -0.587953
0.243538 0.145415 -0.587953
0.353563 0.145415 -0.529144
-0.5 0.216125 -0.5
-0.392847 0.216125 -0.587938
0 0.257341 -0.500013
0.392847 0.216125 -0.587938
0.5 0.216125 -0.5
-0.212607 0.340485 -0.513279
-0.108386 0.340485 -0.544895
0 0.340485 -0.55557
0.108386 0.340485 -0.544895
0.212608 0.340485 -0.51328
-0.694947 -1.01359 -0.465074
-0.54179 -1.00856 -0.420309
[...]
POINT_DATA 3856
SCALARS scalar float
LOOKUP_TABLE default
2546.48
2546.48
2546.48
2546.48
2546.48
2546.48
2546.48
2546.48
2546.48
2546.48
2546.48
2546.48
2546.48
2546.48
2546.48
2546.48
2546.48
2546.48
2546.48
2546.48
2546.48
2546.48
5097.44
5097.97
5097.45
2546.48
2546.48
2546.48
2546.48
2546.48
2546.48
2546.48
2546.48
2546.48
2546.48
2546.48
2546.48
2546.48
2546.48
2546.48
2546.48
2546.48
2546.48
2546.48
2546.48
2546.48
2546.48
2546.48
2546.48
2546.48
2546.48
2546.48
2546.48
2546.48
2546.48
2546.48
2546.48
2546.48
2546.48
5097.59
5097.93
5116.44
5109.79
5115.28
5110.32
5116.44
5097.9
2563.34
2559.34
2570.88
2559.12
2564.18
2546.48
2546.48
2546.48
2546.48
2546.48
2546.48
2546.48
2546.48
2546.48
2546.48
2546.48
2546.48
2546.48
2546.48
2546.48
2546.48
2546.48
2546.48
2546.48
2546.48
2546.48
2546.48
2546.48
2546.48
2546.48
2546.48
2546.48
2546.48
2546.48
2546.48
2546.48
2546.48
2546.48
2546.48
2546.48
2546.48
2546.48
2546.48
2546.48
2546.48
2546.48
2546.48
2546.48
5119.03
5122.48
5110.68
5105.63
5127.75
5129.21
5102.44
5111.92
5122.11
5118.85
5097.58
2555.8
2594.19
2614.64
2591.3
2635.81
2636.2
2592.89
2618.29
2593.71
2555.44
2546.48
2546.48
2605.87
2546.48
2546.48
2546.48
2546.48
2546.48
2546.48
2546.48
2546.48
2546.48
2546.48
2546.48
2546.48
2546.48
2546.48
2546.48
2546.48
2546.48
2546.48
2546.48
2546.48
2546.48
2546.48
2546.48
2546.48
2546.48
2546.48
2546.48
2546.48
2546.48
2546.48
2546.48
2546.48
2546.48
2546.48
2546.48
2546.48
2546.48
2546.48
2546.48
2546.48
2546.48
2546.48
2546.48
2546.48
2546.48
2546.48
2546.48
2546.48
2546.48
2546.48
2546.48
2546.48
2546.48
2546.48
2546.48
2546.48
2546.48
2546.48
2546.48
2546.48
2546.48
2546.48
2546.48
2546.48
2546.48
2546.48
2546.48
2546.48
2546.48
2546.48
2546.48
2546.48
2546.48
5099.87
5130.4
5099
5115.76
5136.34
5172.12
5176.91
5160.4
5135.65
5116.42
5099.04
5134.33
5099.81
2560.81
2648.26
2641.3
2568.99
2608.75
2647.49
2641.23
2655.36
2706.81
2639.86
2653.61
2640.09
2608.95
2636.5
2566.82
2561.93
2546.48
2627.93
2546.48
2579.24
2598.32
2599.38
2669.95
2610.91
2581.11
2597.72
2713.55
2696.35
2602.06
2575.09
2628.29
2546.48
2546.48
2562.01
2546.48
2546.48
2546.48
2546.48
2546.48
2546.48
2546.48
2563.09
2546.48
2546.48
2546.48
2546.48
2546.48
2546.48
2546.48
2546.48
2546.48
2546.48
2546.48
2546.48
2546.48
2546.48
2546.48
2546.48
2546.48
2546.48
2546.64
2546.48
2546.48
2546.48
2546.48
2546.48
2546.48
2546.48
2546.48
2546.48
2546.48
2546.48
2546.48
2546.48
2546.48
2546.48
2546.48
2546.48
2546.48
2546.48
2546.48
2546.48
2546.48
2546.48
2546.48
2546.48
2546.48
2546.48
2546.48
2546.48
2546.48
2546.59
2546.48
2546.48
2546.48
2546.48
2546.48
2546.48
2546.48
2546.48
2546.48
2546.48
2546.48
2546.48
2546.48
2546.48
2546.48
2546.48
2546.48
2546.48
2546.48
2546.48
2546.48
2546.48
2546.48
2546.56
2546.48
2546.48
2546.48
2546.48
2546.48
2546.48
2546.48
5097.58
5099.04
5136.45
5123.84
5153.53
5182.71
5137.95
5221.19
5701.52
5674.29
5134.41
5185.35
5150.72
5123.81
5141.4
5098.42
5097.57
2555.48
2693.03
2677.68
2666.96
2705.04
2756.76
3085.18
2726.81
2837.58
2763.14
2826.67
3089.04
2713.19
2666.73
2706.6
2660.34
2701.81
2555.74
2546.48
2618.35
2595.26
2679.2
2578.03
2709.34
2577.7
2676.18
2674.95
2683.99
2706.91
2582.83
2678.8
2576.76
2593.75
2630.81
2546.48
2546.48
2547.59
2546.48
2617.62
2653.51
2616.19
2546.48
2546.48
2546.48
2546.48
2546.48
2546.48
2546.48
2546.48
2555.3
2555.17
2556.04
2555.17
2555.44
2546.48
2546.48
2546.48
2546.48
2546.48
2547.15
2547.15
2547.15
2547.15
2547.15
2547.15
2547.15
2546.48
2546.48
2546.48
2546.64
2546.64
2546.64
2752.62
2546.64
2546.64
2546.64
2546.48
2546.48
2546.48
2546.48
2546.48
2546.48
2546.48
2546.48
2547.15
2547.15
2547.15
2547.15
2547.15
2547.15
2547.15
2546.48
2546.48
2546.48
2546.48
2546.48
2546.48
2546.48
2555.14
2555.14
2611.07
2611.07
2555.14
2555.14
2611.07
2555.14
2546.48
2546.48
2546.48
2546.48
2546.48
2546.48
2546.59
2546.59
2546.59
2546.59
2546.59
2546.59
2546.48
2546.48
2546.48
2546.48
2546.48
2595.03
2595.03
2595.03
2546.48
2546.48
2546.48
2546.48
2546.48
2546.75
2546.75
2546.74
2546.74
2546.74
2546.75
2546.75
2546.48
2546.48
2546.48
2546.48
2546.48
2568.2
2568.2
2568.2
2568.2
2568.2
2546.48
2546.56
2546.56
2546.56
2546.56
2546.56
2546.56
2546.48
2546.48
5097.9
5116.51
5118.84
5115.87
5122.67
5172.43
5202.29
6193.95
6118.67
6087.24
6483.21
6218.74
5635.47
6086.22
5195.76
5187.64
5121.74
5115.81
5115.84
5118.43
5097.94
2592.45
2567.7
2638.53
2665.38
3148.39
2808.5
3318.74
2817.44
3033.22
2942.48
3101.97
3284.24
3361.76
3092.27
3423.89
3097.52
2853.68
3075.12
3357.36
2812.46
2815.63
2652.64
2638.53
2570.15
2593.11
2546.48
2546.48
2594.65
2679.89
2688.26
2611.69
2688.56
2889.77
3123.72
2867.5
2888.22
2851.09
2894.5
2690.12
2701.48
2670.72
2595.4
2546.48
2546.48
2546.48
2546.48
2665.24
2546.67
2612.05
2639.42
3094.18
3094.04
3084.26
3084.32
2644.82
3095.15
2671.54
2610.04
2625.72
2548.96
2546.48
2546.48
2546.48
2546.48
2546.48
2546.48
2546.48
2557.04
2555.15
2864.1
2867.97
2868.1
2863.98
2864.02
2868.31
2555.13
2864.26
2557.88
2546.48
2546.48
2546.48
2546.48
2546.48
2547.16
2775.52
2777.76
2775.54
2777.84
2775.55
2777.87
2775.55
2547.16
2546.48
2546.48
2546.48
2546.48
2546.48
2546.64
2751.9
2774.63
2752.58
2775.27
4074.65
2751.89
2774.64
2775.29
2751.9
2774.64
2752.64
2775.29
2751.92
2774.64
2546.64
2546.48
2546.48
2546.48
2546.48
2546.48
2546.48
2546.48
2546.48
2546.48
2547.15
2862.18
2862.32
2862.19
2862.33
2862.19
2862.33
2862.19
2547.15
2546.48
2546.48
2546.48
2546.48
2546.48
2546.48
2546.48
2555.14
2546.48
2611.07
2555.14
2611.07
3078.52
3078.32
3078.5
3078.32
2611.07
3078.53
2611.07
2555.14
2546.48
2555.14
2546.48
2546.48
2546.48
2546.48
2546.48
2546.48
2546.59
2841.03
2841.04
2841.03
2841.04
2841.03
2546.59
2546.48
2546.48
2546.48
2546.48
2595.03
2595.03
2595.04
2595.04
2595.03
2595.03
2546.48
2546.48
2546.48
2546.74
2683.15
2970.36
2683.15
2970.37
2970.35
2683.15
2683.16
2970.35
2683.15
2970.36
2683.14
2683.15
2546.74
2546.48
2546.48
2546.48
2568.2
2568.2
2568.2
2568.2
2546.48
2546.48
2546.56
3197.64
3197.64
3197.64
2546.56
2546.48
2546.48
2546.48
2895.59
2895.59
2895.59
2895.59
2895.59
2546.48
2546.48
2705.27
2705.28
2705.27
2705.27
2705.27
2705.27
2705.27
5121.99
5150.26
5201.5
6199.14
6108.1
6686.82
7078.71
6510.35
9572.39
7391.61
6946.63
7497.84
7078.62
6934.42
6022.46
5520.85
5186.23
6055.93
5155.48
5123.39
2562.1
2613.29
2607.12
2705.58
2817.74
3372
2858.72
3368.75
3854.62
3081.32
3079.19
3784.23
4447.58
4391.28
4674.66
4240.85
3955.87
3748.22
4120.9
3933.47
4518.75
4299.05
3984.51
4401.42
3813.69
4354.72
3771.38
4360.96
3077.45
2858.67
3052.08
3774.81
3130.12
3328.33
2824.09
2707.12
2614.33
2614.71
2565.02
2577.57
2677.49
2576.98
2690.47
3132.94
2891
2885.81
3625.19
3557.27
4583.63
3638.82
3579.12
4573.69
4577.35
4604.23
4744.27
3649.76
4581.07
4575.86
3573.34
3620.45
2876.5
2885.02
3170.42
2695.98
2575.09
2681.11
2579.2
2546.48
2546.48
2546.48
2612.33
3586.29
3090.61
3595.12
3566.73
3084.25
5790.25
5791.01
5790.82
3562.8
3596.16
5790.58
5790.25
3562.89
3597.91
3567.64
3587.85
3084.48
3091.03
2611.05
2546.48
2546.48
2546.48
2546.48
2546.48
2555.15
2864.01
2867.07
4402.35
4901.49
4901.31
4402.42
4402.39
4901.15
4901.24
4402.45
4402.41
4901.23
4901.36
4402.4
4402.39
4402.35
4901.44
4402.33
2867.38
2555.14
2864.27
2546.48
2546.48
2547.15
2775.48
4150.63
2777.4
4150.6
4150.58
4150.55
4150.53
4150.54
4150.58
4150.57
2777.5
4150.63
2775.53
2547.15
2546.48
2546.48
2546.48
2546.64
2774.62
2751.87
2775.23
2752.49
4074.61
4150.33
4150.33
4150.33
4074.64
4074.62
4150.32
4150.31
4074.64
4150.31
4074.63
4150.32
4150.32
4074.62
4074.61
4150.35
4074.61
2752.55
2775.26
2774.64
2751.91
2546.64
2546.48
2546.48
2546.48
2546.48
2546.48
2547.15
2862.18
2862.32
4401.74
4900
4401.71
4401.72
4900.05
4900.03
4900.03
4401.72
4401.72
4900.03
4900.02
4401.72
4900.05
4401.73
4401.72
4401.71
2862.33
2862.19
2547.15
2546.48
2546.48
2546.48
2546.48
2555.14
2611.07
3078.52
2611.07
3554.06
3078.33
3554.01
3554.06
5787.18
5787.16
5787.15
3554.03
3554.05
5787.19
5787.18
3554.03
3078.33
3554.06
3554.01
3554.07
3078.51
2611.07
2555.14
2611.07
2546.48
2546.48
2546.48
2546.48
2546.59
2841.03
2841.03
2841.04
4523.05
4523.02
4523.07
4523.1
4523.02
2841.03
2841.04
2841.03
2546.59
2546.48
2546.48
2546.48
2595.03
3508.85
3508.89
3508.86
3508.86
3508.87
3508.85
3508.85
3508.86
3508.84
2595.03
2546.48
2546.48
2546.48
2546.75
2683.15
2683.15
2970.36
2970.35
4246.51
4246.58
4246.54
4246.54
4246.54
2970.37
2970.36
2683.15
2683.15
2546.75
2546.48
2546.48
2546.48
2568.2
3637.2
3637.22
3637.19
3637.24
3637.2
3637.19
3637.22
2568.2
2546.48
2546.48
2546.56
3197.62
3197.63
3197.62
3197.62
3197.63
3197.62
2546.56
2546.48
2546.48
2895.6
2895.59
2895.59
2895.59
2546.48
2705.28
2705.26
5018.01
2705.27
2705.27
5097.45
5110.23
5111.05
5134.99
5134.6
5197.54
5803.33
7878.7
7220.05
7572.29
8204.37
8365.43
8186.69
9267.95
9724.98
8480.31
8808.65
7242.05
7676.93
7221.48
7083.16
5198.49
5675.27
5141.54
5136.61
5113.11
5109.31
5097.43
2559.22
2592
2637.88
2640.67
2649.49
3076.17
2764.36
2847.91
3093.5
3818.71
4301.14
4397.35
4041.95
8599.38
4490.23
5369.91
5379.03
5691.34
8729.86
8716.43
8713.88
8671.82
10770.5
10675.5
10491.3
5318.44
6559.91
10423
10477.6
8736.29
8646.31
8686.33
10547.6
10444
5373.44
5362.16
8461.15
7292.21
4555.95
5345.56
5205.18
4333.35
3841.26
4358.95
2846.31
3054.25
2766.26
2659.02
2641.72
2640.34
2599.69
2562.18
2546.48
2546.48
2601.42
2595.5
2692.2
2580.15
2886.38
3625.37
3550.48
2888.77
3658.8
5021.31
6805.34
4567.8
4568.75
4527.99
4965.72
6785.58
6800.17
6790.02
6795.57
6816.06
6776.64
6781.78
3646.49
6788.1
4571.55
4573.06
4529.48
3635.16
3562.38
2886.39
2885.95
2683.33
2708.28
2587.47
2596.07
2700.71
2602.35
2546.48
2546.48
2546.48
2546.48
2546.48
2639.06
3093.61
3566.02
3594.67
3084.07
7436.78
5789.85
5790.51
5790.61
10959.4
10959.9
10958.6
10959.1
7416.64
7425.65
7420.71
7419.4
10958.3
10957.6
10959.1
7416.05
7418.83
7427.09
7435.49
5790.37
5790.37
5789.83
3568.25
3084.38
3595.25
2638.05
3093.88
2546.48
2546.48
2546.48
2546.48
2546.48
2546.48
2546.48
2546.48
2555.29
2867.76
4402.48
4402.41
4901.5
4901.35
4901.81
4901.71
4901.3
4901.44
4402.4
4402.36
2867.91
2555.31
2546.48
2546.48
2546.48
2546.48
2546.48
2547.15
2547.15
2777.66
4150.6
4150.58
4150.55
4150.58
2777.72
2547.15
2547.15
2546.48
2546.48
2546.48
2546.48
2546.64
2546.64
2775.25
2752.53
4150.33
4150.33
4074.63
4074.65
4074.62
4150.3
4150.32
4074.62
2775.27
2752.58
2546.64
2546.64
2546.48
2546.48
2546.48
2546.48
2546.48
2546.48
2546.48
2546.48
2547.15
2547.15
2862.31
4401.72
4401.72
4900.05
4900.04
4900.09
4900.08
4401.72
4401.71
4900.05
4900
2862.33
2547.15
2547.15
2546.48
2546.48
2546.48
2546.48
2546.48
2546.48
2546.48
2555.14
3078.51
2611.07
3554.01
3554.06
3078.33
5787.15
5787.16
5787.16
7414.05
7414.1
7414.15
7414.15
7414.1
10934.2
10934.1
10934.1
10934.2
7414.09
7414.1
7414.14
10934.2
10934.2
10934.1
5787.16
5787.15
5787.16
7414.05
3554.06
3078.33
3554.01
3078.53
2611.07
2555.14
2546.48
2546.48
2546.48
2546.48
2546.48
2546.48
2546.48
2546.59
2546.59
2841.03
4523.03
4523.02
4523.03
6600.72
6600.7
6600.71
6600.7
6600.68
6600.68
6600.7
6600.71
6600.72
4523.03
4523.03
4523.03
2841.03
2546.59
2546.59
2546.48
2546.48
2546.48
2546.48
2546.48
2595.04
3508.86
3508.84
5118.6
5118.58
5118.58
5118.6
5118.62
5118.59
5118.62
5118.6
5118.58
5118.58
5118.6
3508.86
3508.85
2595.04
2546.48
2546.48
2546.48
2546.48
2546.74
2546.75
2683.15
2970.36
2970.37
4246.54
4246.49
4246.54
10088.9
10088.9
8376.22
8376.19
8376.2
8376.19
10088.9
8376.22
8376.19
8376.19
4246.54
4246.54
4246.56
2970.35
2970.36
2683.14
2546.74
2546.75
2546.48
2546.48
2546.48
2546.48
2568.2
3637.2
3637.22
3637.17
7164.64
7164.75
7164.67
7164.71
7164.75
7164.75
7164.71
7164.64
7164.67
3637.17
3637.2
3637.22
2568.2
2546.48
2546.48
2546.56
2546.56
3197.62
3197.63
6271.62
6271.65
6271.62
6271.62
6271.66
6271.62
6271.62
6271.65
6271.62
3197.62
3197.63
2546.56
2546.56
2546.48
2546.48
2895.58
2895.59
5583.42
5583.38
5583.38
5583.4
5583.34
5583.38
5583.37
5583.35
5583.36
5583.37
5583.38
2895.59
2895.59
2546.48
2705.27
5017.93
5017.98
5017.98
5017.98
5017.99
5017.98
5017.99
5017.98
5017.98
5017.93
2705.27
5097.98
5114.36
5126.22
5102.48
5174.65
5161.9
5664.56
5216.51
6094.05
6116.96
8804.04
6547.19
7665.01
6747.82
9183.79
7093.86
5443.59
6851.92
7084.71
7274.77
9522.11
8895.08
8475.77
6507.56
7313.46
6954.9
6171.11
6146.23
5677.85
5168.25
5230.58
5155.55
5130.02
5109.23
5111.46
5097.86
2618.83
2640.49
2834.91
2734.81
3414.18
3093.79
3306.11
4462.45
3995.32
3770.56
4455.86
5125.86
5362.78
10448.7
10545
10535.6
8690.05
8477.39
8679.22
10415.8
2870.75
10425.7
3009.27
10515.5
10454.7
2917.81
10383.7
8777.57
8662.18
10590
5320.6
8725.24
3957.39
8682.64
4526.78
3831.19
4041.78
4419.03
3941.9
3120.7
3416.04
3259.68
3084.6
2832.72
2738.12
2650.81
2591.02
2546.48
2546.48
2708.86
2608.99
2692.78
2582.3
2675.3
2672.13
2871.96
3113.22
2895.31
3568.85
3633.02
4575.16
4590.71
4611.58
6799.08
6774
6777.06
6742.25
4364.49
12597.4
12223.7
13057.6
13038.4
13022.8
13008.4
12962.2
12365
12824.9
12248.2
12376.4
12178.2
12169
12182.6
12552.2
12855.6
12723.9
4747.99
6815.78
6780.97
6795.95
6777.78
4577.18
4580.46
3642.16
4602.71
3567.57
4697.84
2863.58
2885.2
3121.26
2672.86
2580.44
2704.46
2600.13
2546.48
2546.48
2546.48
2546.48
2546.48
2653.31
2616.53
3083.88
3093.07
3593.92
3561.5
5791.42
5790.64
5791.13
10966.2
10963.2
10959.9
10965.1
7417.22
7419.79
7425.1
7420.8
18620.6
18631.2
18654.1
18657.5
12813.9
18661.5
18610.5
10958.7
18659.8
18640.9
18648.6
18662.8
18663.4
18662.2
10957.5
10958
18658.6
18652.7
18645.4
18630.2
18637.7
5790.74
7421.06
7426.09
7419.17
7416.45
10960.2
10959.8
10959.1
5790.33
5791.16
3563.34
3593.78
3093.25
3084.1
2650.9
2617.29
2546.48
2546.48
2546.48
2546.48
2546.48
2546.48
2546.48
2546.48
2555.16
2556.03
2863.77
2867.69
4901.19
4901.25
4402.53
4402.49
4901.24
4901.18
4402.42
4402.47
2867.74
2864.01
2555.97
2555.17
2546.48
2546.48
2546.48
2546.48
2546.48
2547.15
2775.45
2777.66
4150.55
4150.56
4150.54
4150.55
2775.49
2777.7
2547.15
2546.48
2546.48
2546.48
2546.48
2546.48
2546.64
2752.53
4074.67
2751.84
2774.62
2775.25
4074.67
4150.32
4150.33
4074.64
4074.66
4150.31
4150.31
2752.56
2751.89
2774.63
2775.27
2546.64
2546.48
2546.48
2546.48
2546.48
2546.48
2546.48
2546.48
2546.48
2546.48
2547.15
2862.17
2862.31
4900.02
4900.03
4401.73
4401.74
4900.03
4900.03
4401.72
4401.72
2862.18
2862.32
2547.15
2546.48
2546.48
2546.48
2546.48
2546.48
2546.48
2546.48
2555.14
2555.14
2611.07
2611.07
3078.32
3078.49
5787.14
5787.16
5787.18
3554.04
3554.03
7414.1
7414.1
7414.15
7414.15
10934.1
10934.2
10934.1
10934.2
10934.2
10934.2
10934.1
10934.2
10934.2
10934.2
5787.18
7414.11
7414.09
7414.14
7414.11
5787.16
3554.05
3554.03
5787.18
3078.5
3078.32
2611.07
2611.07
2555.14
2555.14
2546.48
2546.48
2546.48
2546.48
2546.48
2546.48
2546.48
2546.59
2841.04
2841.03
4523.06
4523.02
4523.1
6600.68
6600.71
6600.71
6600.7
19066.7
19066.7
19066.7
19066.7
19066.7
13935.9
19066.7
19066.7
19066.7
19066.7
19066.6
19066.6
19066.6
19066.7
19066.6
19066.6
19066.6
19066.6
6600.7
6600.71
6600.71
6600.68
4523.1
4523.02
4523.02
2841.04
2841.03
2546.59
2546.48
2546.48
2546.48
2546.48
2546.48
2595.03
2595.03
3508.85
3508.87
5118.62
5118.6
5118.59
12877.8
12877.8
12877.8
12877.8
12877.8
12877.8
12877.8
12877.8
4185.72
12877.8
12877.8
12877.8
12877.7
12877.8
12877.8
12877.8
12877.8
12877.8
5118.6
5118.59
5118.62
3508.85
3508.87
2595.03
2595.03
2546.48
2546.48
2546.48
2546.48
2546.75
2970.35
2970.35
2683.15
2683.15
4246.58
4246.54
4246.51
10088.9
10088.9
8376.19
8376.19
8376.22
8376.2
2547.75
10088.9
10088.9
10088.8
10088.9
10088.9
8376.23
10088.9
10088.9
10088.9
10088.8
10088.9
10088.9
10088.9
8376.22
8376.23
8376.2
8376.19
8376.19
4246.54
4246.51
4246.54
2970.35
2970.37
2683.15
2683.16
2546.75
2546.48
2546.48
2546.48
2546.48
2568.2
2568.2
3637.19
3637.24
7164.67
7164.75
7164.75
7164.71
2546.48
7164.67
7164.71
7164.75
7164.75
3637.24
3637.19
2568.2
2568.2
2546.48
2546.48
2546.56
3197.64
3197.64
6271.62
6271.62
6271.66
6271.65
2546.48
6271.62
6271.66
6271.62
6271.65
3197.64
3197.64
2546.56
2546.48
2546.48
2895.59
2895.59
5583.35
5583.38
5583.39
2546.48
5583.38
5583.39
5583.34
2895.59
2895.59
2546.48
2705.27
2705.27
5018.01
5017.99
5017.98
2546.48
5018.01
5017.99
5017.98
2705.27
2705.27
5092.96
5105.61
5123.19
5174.73
5693.54
6159.22
7539.91
6457.26
8462.71
8320.93
8260
6830.43
6923.67
7095.71
7095.49
8544.03
8710.56
9101.58
10516.8
6434.2
7498.09
6151.16
5678.32
5174.26
5105.15
5111.86
2564.47
2713.88
2652.47
2751.66
2837.49
3120.06
3217.54
3118.89
5968.13
4279.2
6562.72
3861.2
4414.88
3835.57
5384.37
10767.2
10328.4
4016.16
8540.04
8630.81
8727.73
10272.7
8555.29
6461.08
10419.2
3039.42
10355.1
10495.1
10300
10328
10246.6
10613.7
3015.49
8607.41
8649.79
5324.75
10313.9
6450.97
5397.49
8775.75
4047.52
3753.99
4404.01
4603.51
3085.41
3411.05
3087.36
2818.59
2754.97
2702.8
2659.06
2556.99
2594.77
2671.07
2600.99
2688.97
2862.43
4575.27
4585.08
4545.54
3642.24
4519.8
6792.53
6795.37
6801.49
13097.2
13076.3
13081.1
13103.3
13104.1
13115
13074.8
13101.7
13031.9
13066.1
13095.9
13073.8
13057.5
13074.5
12956.8
4481.67
6812.59
6738.25
6809.09
4575.98
3639.16
4584.45
2871.23
2598.58
2680.18
2670.99
2592.8
2618.07
3083.86
5790.73
5791.05
3561.78
10962.9
10963.4
7427.07
7419.29
7416.68
10963.2
18582.2
18585.6
18602.4
18589
18592.4
18596.5
18580
10964.3
10963.8
18580
18623
18588.2
18583
18616.1
18609.2
18602.1
18595
10962.1
10960.1
10963.7
7416.66
7419.16
7427.31
10959.8
10961.6
5790.91
3563.16
5790.47
3083.96
2620.15
2555.17
2863.74
4901.27
4901.36
4402.5
4901.41
4901.27
4402.45
2863.94
2555.19
2547.15
2775.42
4150.56
4150.56
2775.46
2547.15
2546.64
2751.83
2774.61
4074.67
4150.32
4074.66
4150.32
2774.62
2751.87
2546.64
2547.15
2862.17
4900
4401.74
4900.03
4900.04
4900.02
4401.73
2862.18
2547.15
2611.07
2555.14
3078.32
3554.02
5787.17
5787.18
7414.1
7414.15
7414.15
10934.1
10934.1
10934.2
10934.1
10934.2
10934.1
10934.1
10934.2
10934.2
10934.1
7414.09
7414.11
7414.14
5787.19
5787.18
3554.03
3078.32
2611.07
2555.14
2546.59
2841.04
4523.05
4523.02
6600.68
6600.71
6600.7
19066.7
19066.7
19066.7
19066.7
19066.7
19066.7
19066.7
19066.7
19066.7
19066.7
19066.7
19066.7
19066.7
19066.7
19066.7
6600.71
6600.71
6600.68
4523.02
4523.1
2841.04
2546.59
2595.03
3508.86
5118.62
5118.6
12877.8
12877.8
12877.8
12877.8
12877.8
12877.8
12877.8
12877.8
12877.8
12877.7
12877.8
12877.8
12877.7
12877.8
12877.8
5118.6
5118.62
3508.86
2595.03
2546.74
2683.15
2970.37
4246.54
4246.58
8376.19
8376.19
8376.22
10088.9
10088.8
10088.9
10088.9
10088.9
10088.9
8376.22
8376.23
10088.9
10088.9
10088.9
10088.9
10088.9
10088.9
10088.9
10088.9
10088.8
8376.22
8376.22
8376.23
8376.19
8376.19
4246.54
4246.54
2970.35
2683.15
2546.74
2568.2
3637.2
3637.19
7164.71
7164.75
7164.67
7164.64
7164.64
7164.75
7164.71
7164.67
3637.19
3637.2
2568.2
2546.56
3197.64
6271.62
6271.62
6271.65
6271.65
6271.62
6271.62
3197.64
2546.56
2895.59
5583.38
5583.34
5583.38
5583.34
5583.38
5583.38
2895.59
2705.27
5017.99
5017.98
5017.99
5017.98
2705.27
5097.44
5109.98
5110.71
5137.75
5138.28
5180.88
6091.46
6793.9
7184.7
7235.56
7620.67
7256.44
7792.23
8532.82
9539.07
7996.08
8837.86
7799.59
7765.05
7215.55
7607.94
5390.38
5185.49
5140.5
5137.95
5109.77
5109.7
5097.43
2558.8
2591.4
2642.45
2654.97
2983.59
2872.98
3064.78
3776.88
4383.76
3072.48
4379.95
6548.96
8162.33
4620.62
5216.85
5355.49
5310.39
10316.7
10438.2
4047.32
8545.24
6463.62
8764.11
8938.49
8744.55
10509.2
5345.63
5906.46
10301.4
10476.7
3853.77
8560.39
8659.25
8689.75
5344.05
7126.55
5142.8
4547.03
5346.12
8730.51
3808.3
3073.94
4318.15
4325.27
2827.04
3056.89
2655.01
2647.15
2589.4
2559.96
2546.48
2546.48
2599.46
2572.3
2710.08
2898.53
3563.41
3629.17
2886.4
3642.23
6796.18
4568.81
4571.2
4527.06
4658.06
4568
6792.43
6819.9
6793.04
6794.43
4586.06
5145.06
6806.47
6732.76
6809.57
3665.09
6791.98
4566.06
4566.64
4531.29
3568.63
2898.83
3615.48
2881.57
2726.16
2590.03
2599.95
2546.48
2546.48
2546.48
2546.48
2546.48
2644.37
3093.73
3565.47
3595.62
3587.91
3083.6
5790.57
7433.57
5790.9
5790.96
5791.07
7419.4
7421.29