# vtk DataFile Version 3.0
Happy Go Lucky
ASCII
DATASET POLYDATA
POINTS 3856 float
-0.0391657 -1.01404 -1.10205
0.0832862 -1.01452 -1.1062
0.184179 -1.01521 -1.10942
-0.414476 -1.01355 -1.05763
-0.305937 -1.01627 -1.03552
-0.225757 -1.0144 -1.09111
-0.139841 -1.01447 -1.04643
-0.0519796 -1.01514 -1.00611
0.136662 -1.01713 -1.02545
0.229878 -1.01675 -1.00458
0.323794 -1.01404 -1.0194
-0.250383 -0.947365 -1.02994
-0.0248091 -0.921768 -1.02275
0.0261212 -0.985689 -1.04232
0.188388 -0.947578 -1.0479
0.411654 -0.994966 -1.03128
-0.203117 -0.886854 -1.00711
-0.586227 -1.01361 -0.969633
-0.470623 -1.01355 -0.9642
-0.374715 -1.01685 -0.970691
-0.294539 -1.01871 -0.921007
-0.22019 -1.01759 -0.984221
-0.129317 -1.02016 -0.950424
-0.0408563 -1.01892 -0.911211
0.0620834 -1.01968 -0.970909
0.1387 -1.01948 -0.914079
0.290576 -1.01863 -0.929144
0.386444 -1.01901 -0.944414
0.47905 -1.01413 -0.973145
0.575501 -1.01429 -0.985533
0.535783 -1.01358 -0.89677
-0.397274 -0.933618 -0.95198
-0.24404 -0.945704 -0.929166
-0.159337 -0.947316 -0.984281
-0.145732 -0.947726 -0.896923
-0.0780473 -0.944572 -0.945933
0.00419841 -0.959055 -0.956094
0.0822914 -0.945343 -0.916918
0.144697 -0.946644 -0.96797
0.214454 -0.974309 -0.927869
0.227823 -0.913846 -0.985947
0.344166 -0.947214 -0.917683
0.420125 -0.935983 -0.951731
0.625854 -0.987807 -0.913934
-0.191222 -0.885848 -0.917588
0.0065456 -0.882654 -0.938408
0.2 -0.893293 -0.908822
-0.375338 -0.785885 -0.906144
-0.191516 -0.785829 -0.96291
5.54143e-06 -0.785827 -0.981356
0.191451 -0.785821 -0.9626
0.375352 -0.785862 -0.906165
-0.18024 -0.598296 -0.906127
-1.6141e-20 -0.598296 -0.923879
0.18024 -0.598296 -0.906127
-0.738046 -1.01352 -0.815438
-0.638209 -1.01578 -0.874724
-0.570815 -1.01785 -0.803426
-0.531992 -1.01405 -0.890517
-0.412127 -1.01952 -0.884274
-0.475539 -1.01886 -0.814019
-0.332966 -1.02148 -0.831876
-0.205422 -1.01796 -0.890075
-0.228641 -1.02298 -0.798609
-0.118199 -1.02262 -0.857708
-0.0352515 -1.02098 -0.81754
0.0487774 -1.02146 -0.880096
0.14031 -1.02173 -0.818488
0.229261 -1.01884 -0.852555
0.343897 -1.01745 -0.850747
0.441554 -1.01586 -0.866786
0.520176 -1.0175 -0.804698
0.619274 -1.017 -0.832136
0.715127 -1.01408 -0.828909
-0.515808 -0.942502 -0.829838
-0.59398 -0.941846 -0.848329
-0.45951 -0.946381 -0.89115
-0.405169 -0.955836 -0.821238
-0.346981 -0.955688 -0.886804
-0.221094 -0.904281 -0.829681
-0.268523 -0.964621 -0.849505
-0.125006 -0.907306 -0.796469
-0.171822 -0.966355 -0.821629
-0.0727887 -0.949863 -0.849538
0.00402155 -0.948272 -0.869719
0.0830364 -0.954752 -0.836306
0.164784 -0.950751 -0.863896
0.294558 -0.958879 -0.795564
0.277899 -0.947343 -0.872002
0.375069 -0.935672 -0.839476
0.45958 -0.946314 -0.813496
0.570982 -0.945636 -0.805478
0.572095 -0.919807 -0.882277
-0.364294 -0.883798 -0.80456
-0.355046 -0.879468 -0.892642
-0.338212 -0.804008 -0.819065
-0.154845 -0.854047 -0.844556
-0.0769738 -0.880665 -0.884287
-0.00646462 -0.803178 -0.800434
0.0560459 -0.888048 -0.795975
0.00938527 -0.865982 -0.858484
0.141315 -0.861078 -0.85453
0.225831 -0.899669 -0.825193
0.311515 -0.881295 -0.796998
0.343729 -0.871943 -0.881103
0.339017 -0.803999 -0.819724
-0.544897 -0.785893 -0.815496
-0.177012 -0.785854 -0.876067
-0.00140559 -0.792132 -0.892486
0.178702 -0.791809 -0.874241
0.545082 -0.785825 -0.815774
-0.162216 -0.636565 -0.815514
3.91163e-09 -0.636558 -0.831506
0.162216 -0.636565 -0.815515
-0.353553 -0.598296 -0.853553
0.353553 -0.598296 -0.853553
-0.162211 -0.425408 -0.815493
0 -0.425408 -0.83147
0.162212 -0.425408 -0.815493
-0.822393 -1.01356 -0.763421
-0.744975 -1.01634 -0.706766
-0.657757 -1.01805 -0.763618
-0.581049 -1.02057 -0.708095
-0.397972 -1.01998 -0.761566
-0.485848 -1.02027 -0.719721
-0.303914 -1.02194 -0.742251
-0.20534 -1.01928 -0.70897
-0.13133 -1.0217 -0.766171
-0.0444955 -1.02444 -0.724275
0.0634797 -1.04195 -0.70717
0.050488 -1.02336 -0.789629
0.165192 -1.02181 -0.725145
0.251046 -1.02392 -0.761176
0.342367 -1.02202 -0.756863
0.432646 -1.02026 -0.771958
0.505523 -1.02119 -0.712544
0.593699 -1.01786 -0.742966
0.687222 -1.01612 -0.734951
0.849508 -1.01483 -0.743474
-0.771409 -0.918405 -0.713205
-0.706157 -0.946027 -0.749473
-0.63069 -0.948105 -0.711288
-0.551983 -0.949818 -0.750098
-0.462041 -0.947254 -0.759973
-0.325742 -0.948551 -0.783634
-0.386005 -0.940545 -0.728562
-0.250935 -0.951397 -0.754597
-0.175426 -0.942697 -0.740689
-0.0718976 -0.957641 -0.764488
0.0736604 -0.910479 -0.714273
0.0064252 -0.950446 -0.784831
0.0258457 -0.978161 -0.711758
0.102823 -0.972512 -0.755192
0.197466 -0.963805 -0.784728
0.137349 -0.909739 -0.791989
0.161078 -0.928751 -0.713048
0.233107 -0.967231 -0.700715
0.244888 -0.904209 -0.74356
0.315398 -0.949353 -0.712931
0.383316 -0.945135 -0.762726
0.459308 -0.949237 -0.725129
0.550023 -0.942871 -0.723405
0.766693 -0.985281 -0.757454
0.706112 -0.924311 -0.750208
-0.514316 -0.880968 -0.763475
-0.491032 -0.803923 -0.735368
-0.447405 -0.88479 -0.704673
-0.330194 -0.878354 -0.716217
-0.252289 -0.829239 -0.708177
-0.276457 -0.872054 -0.780893
-0.101067 -0.898886 -0.714695
-0.175789 -0.86559 -0.708556
-0.106101 -0.830192 -0.765133
-0.0424973 -0.882721 -0.793876
-0.00981722 -0.894323 -0.719035
0.052794 -0.8309 -0.739597
0.173734 -0.850883 -0.752522
0.247736 -0.818754 -0.735271
0.39165 -0.894183 -0.70111
0.317025 -0.86725 -0.712293
0.481584 -0.872387 -0.699392
0.495839 -0.802713 -0.741995
0.508205 -0.894233 -0.777929
-0.323067 -0.797005 -0.734778
-0.178158 -0.794138 -0.778446
-0.00512743 -0.773988 -0.721217
0.125092 -0.776259 -0.704103
0.143888 -0.788162 -0.791762
0.328975 -0.790399 -0.733391
-0.318198 -0.636565 -0.768198
-0.144204 -0.674808 -0.724962
-3.52818e-05 -0.67365 -0.742568
0.144313 -0.674571 -0.725613
0.318205 -0.636557 -0.768216
-0.51328 -0.598296 -0.768177
0.51328 -0.598296 -0.768178
-0.318189 -0.425408 -0.768177
-0.14599 -0.480963 -0.733943
0 -0.480963 -0.748323
0.145991 -0.480963 -0.733944
0.31819 -0.425408 -0.768178
0 -0.273875 -0.707107
-0.951093 -1.01355 -0.599899
-0.84847 -1.01349 -0.666843
-0.767894 -1.01896 -0.614229
-0.662487 -1.01738 -0.657178
-0.526597 -1.01962 -0.634937
-0.438764 -1.02331 -0.611899
-0.369355 -1.01832 -0.673494
-0.19491 -1.02477 -0.615895
-0.278908 -1.02084 -0.656082
-0.12428 -1.042 -0.670234
-0.0470919 -1.02338 -0.633045
0.0394708 -1.01288 -0.632632
0.124931 -1.04152 -0.643034
0.209989 -1.02345 -0.643067
0.295498 -1.02323 -0.676792
0.364265 -1.02455 -0.616633
0.456118 -1.01922 -0.633452
0.577475 -1.02042 -0.650604
0.679826 -1.02062 -0.639937
0.772322 -1.01652 -0.668286
0.867254 -1.01509 -0.650099
-0.811845 -0.943359 -0.601208
-0.72175 -0.950001 -0.646094
-0.58696 -0.956786 -0.642485
-0.513574 -0.941181 -0.678469
-0.439195 -0.96459 -0.670676
-0.329358 -0.961421 -0.612131
-0.311683 -0.951391 -0.691641
-0.38052 -0.91427 -0.646649
-0.253048 -0.942811 -0.609243
-0.243884 -0.907332 -0.68488
-0.120137 -0.983502 -0.609349
-0.187177 -0.952004 -0.654192
-0.120084 -0.978141 -0.693749
-0.116204 -0.912511 -0.63448
-0.0469162 -0.951186 -0.678204
-0.0445117 -0.942885 -0.599916
0.0244618 -0.930646 -0.642813
0.107489 -0.978646 -0.674538
0.189428 -0.941403 -0.636994
0.105985 -0.913099 -0.628399
0.137766 -0.978298 -0.597123
0.269057 -0.964334 -0.620562
0.394619 -0.997854 -0.691799
0.348191 -0.942053 -0.640182
0.441997 -0.926459 -0.64857
0.516732 -0.958074 -0.651303
0.577069 -0.946886 -0.598415
0.631078 -0.9593 -0.685724
0.65973 -0.946639 -0.596449
0.714803 -0.947902 -0.674165
0.750784 -0.953094 -0.600799
-0.674591 -0.890962 -0.676088
-0.594868 -0.867194 -0.656349
-0.537406 -0.895194 -0.609588
-0.454634 -0.892192 -0.620525
-0.454248 -0.811731 -0.657226
-0.375205 -0.833165 -0.643919
-0.303519 -0.880045 -0.630361
-0.227778 -0.833933 -0.627344
-0.134792 -0.837173 -0.634064
-0.0650626 -0.830395 -0.692022
-0.0457079 -0.86968 -0.622232
0.0414884 -0.853108 -0.65891
0.203065 -0.865119 -0.675122
0.122209 -0.852866 -0.682062
0.271162 -0.89902 -0.651064
0.272755 -0.816961 -0.64932
0.344465 -0.856088 -0.628859
0.425227 -0.847107 -0.621705
0.51353 -0.880251 -0.619126
0.58864 -0.895732 -0.662945
0.674858 -0.881375 -0.647461
-0.62973 -0.79771 -0.623353
-0.693559 -0.785884 -0.693563
-0.297686 -0.789324 -0.643371
-0.252122 -0.706834 -0.609796
-0.166781 -0.770213 -0.597652
-0.147663 -0.785596 -0.694793
-0.125989 -0.710029 -0.639439
-0.00937457 -0.796753 -0.639563
0.0876656 -0.766533 -0.615735
0.173703 -0.798314 -0.632376
0.131646 -0.703022 -0.642806
0.255956 -0.746838 -0.676477
0.380255 -0.773949 -0.598859
0.442536 -0.790105 -0.676171
0.693839 -0.785833 -0.693839
0.631526 -0.795254 -0.631617
-0.410811 -0.674689 -0.614825
-0.461952 -0.636565 -0.69136
-0.283264 -0.67437 -0.683863
0.0010506 -0.698929 -0.664337
0.249893 -0.696736 -0.605083
0.284712 -0.670212 -0.684741
0.410632 -0.674828 -0.614554
0.461952 -0.636565 -0.69136
-0.653281 -0.598296 -0.653281
-0.254551 -0.536521 -0.614542
-0.129769 -0.53652 -0.652394
-5.1021e-11 -0.536521 -0.665176
0.129769 -0.53652 -0.652395
0.254552 -0.536521 -0.614542
0.653281 -0.598296 -0.653281
-0.415745 -0.480963 -0.622207
-0.461939 -0.425408 -0.691341
-0.28637 -0.480963 -0.69136
0.286371 -0.480963 -0.69136
0.415746 -0.480963 -0.622207
0.46194 -0.425408 -0.691342
-0.124155 -0.344584 -0.624168
0 -0.344584 -0.636396
0.124155 -0.344584 -0.624168
-0.270598 -0.273875 -0.653281
-0.13795 -0.273875 -0.69352
0.13795 -0.273875 -0.69352
0.270598 -0.273875 -0.653281
-0.959434 -1.01343 -0.502106
-0.859882 -1.01738 -0.570951
-0.780545 -1.01722 -0.522002
-0.601897 -1.02257 -0.584543
-0.691274 -1.0213 -0.557881
-0.516915 -1.02262 -0.540289
-0.424754 -1.0246 -0.522433
-0.35715 -1.02808 -0.582301
-0.269208 -1.01663 -0.565246
-0.198373 -1.02866 -0.520594
-0.120785 -1.04338 -0.578659
-0.0608975 -0.991758 -0.548813
0.000783774 -1.04506 -0.55513
-0.0955706 -1.04663 -0.497081
0.0883975 -1.02831 -0.562181
0.183579 -1.02853 -0.55786
0.277194 -1.02591 -0.577048
0.251195 -1.04443 -0.497205
0.342575 -1.02539 -0.496538
0.426534 -1.02468 -0.550213
0.526074 -1.02138 -0.570275
0.620197 -1.02077 -0.568857
0.712903 -1.01645 -0.548545
[...]
POINT_DATA 3856
SCALARS scalar float
LOOKUP_TABLE default
5100.07
5103.52
5103.46
5098.16
5111.06
5100.06
5101
5107.4
5118.85
5115.24
5103.89
2601.79
2598.92
2590.87
2598.61
2555.64
2644.99
5098.09
5098.62
5118.33
5127.12
5116.12
5139.27
5132.44
5151.66
5131.36
5126.4
5126.99
5103.39
5101.98
5102.37
2583.88
2610.58
2631.66
2675.08
2610.83
2698.53
2635.34
2615.35
2654.87
2622.7
2660.97
2573.27
2563.63
2642.04
2629.64
2643.35
2546.75
2554.75
2552.72
2552.16
2547.3
2546.48
2546.48
2546.48
5098.09
5105.84
5120.19
5102.09
5134.39
5129.9
5154.99
5125.23
5179.61
5176.76
5160.88
5162.54
5154.99
5129.28
5117.25
5109.17
5123.42
5123.87
5100.78
2640.2
2593.66
2595.58
2626.09
2666.89
2694.27
2650.15
2772.04
2732.28
2718.89
2674.24
2701.34
2662.95
2683.21
2666.77
2666.17
2620.24
2628.06
2584.36
2644.24
2621.57
2575.98
2689.14
2618.13
2594.21
2717.79
2698.95
2641.99
2641.85
2634.72
2603.39
2573.61
2546.5
2606.62
2583.96
2592.39
2550.68
2546.48
2546.68
2546.48
2546.48
2546.48
2546.48
2546.48
2546.48
5098
5110.07
5121.92
5145.69
5142.16
5141.2
5160.36
5148.97
5165.43
5201.05
5889.11
5243.9
5167.69
5198.49
5176.51
5146.69
5158.54
5129.4
5115.54
5107.27
2596.09
2622.17
2658.97
2661.46
2661.5
2711.43
2711.75
2712.09
2733.97
2734.89
2730.8
2729.99
2782.22
2768.76
2690.93
2779.42
2716.46
2751.85
2700.35
2702.55
2704.24
2666.06
2650.31
2578.21
2601.23
2633.83
2572.89
2628.08
2662.98
2662.48
2629.3
2748.53
2660.76
2644.5
2663.53
2673.03
2654
2704.7
2627.85
2684.09
2723.22
2641.2
2590.6
2643.83
2611.12
2586.51
2618.16
2599.81
2599.2
2606.59
2546.49
2547.32
2574.66
2553.84
2546.74
2546.48
2546.48
2546.48
2546.48
2546.48
2546.48
2546.48
2546.48
5098.28
5098.22
5128.81
5115.48
5163.83
5211.53
5137.19
5246.42
5184.49
5898.95
5243.72
5288.62
5883.87
5229.51
5193.85
5223.45
5149.02
5147.17
5142.34
5110.22
5106.42
2583.99
2624.35
2677.93
2676.86
2725.93
2812.49
2722.82
2739
2756.33
2750.14
2963.91
2755.65
2892.73
2805.4
2786.22
2907.61
2747.26
2838.17
2810.24
2769.97
2910.07
2849.98
2613.96
2690.7
2789.29
2723.72
2708.54
2628.74
2654.22
2680.39
2617.75
2634.97
2630.18
2716.78
2711.47
2601.88
2640.89
2665.73
2652.39
2718.83
2678.12
2708.24
2720.45
2734.27
2724.45
2784.14
2714.49
2674.06
2675.62
2657.18
2661.4
2602.67
2573.63
2546.88
2598.73
2599.47
2627.85
2606.17
2577.74
2730.1
2628.42
2619.84
2593.36
2647.62
2593.72
2600.01
2553.38
2590.64
2550.5
2546.48
2557.88
2605.72
2600.99
2578.23
2546.62
2546.48
2546.48
2546.48
2546.48
2546.48
2546.49
2546.48
2546.48
2546.48
2546.48
2546.48
2546.48
2546.48
2546.48
2546.48
2546.48
2546.48
2546.48
2546.48
2546.48
2546.48
5098.68
5116.88
5125.56
5174.87
5151.05
5173.23
5240.99
5324.1
5244.98
5389.29
6209.04
6272.84
6428.92
6977.99
5433.51
5346.91
5289.62
6204.26
5257.02
5234.1
5150.24
5164.56
5113.81
5125.66
5105.31
5099.31
5100.79
2585.44
2656.46
2701.18
2666.65
2674.03
2753.85
2715.04
2669.24
2766.59
2868.21
2889.35
2818.94
2801.25
3247.52
2988.35
3458.72
2865.66
3000.45
3108.6
2805.3
2846.37
2757.64
2970.27
2850.19
2730.44
2944.77
2770.06
2842.93
2746.78
2697.6
2676.73
2587.96
2672.11
2629.61
2628.41
2622.92
2663.62
2725.95
2639.44
2693.64
2678.44
2723.9
2742.07
2778.6
2732.93
2763.12
2750.88
2703.19
2874.39
2782.39
2738.28
2689.49
2731.17
2749.36
2714.87
2824.6
2745.92
2681.74
2767.63
2629.25
2717.32
2678.87
2695.43
2666.23
2642.2
2547.97
2612
2620.85
2609.5
2672.55
2576.06
2645.07
2598.26
2670.62
2602.93
2700.23
2651.67
2718.6
2705.9
2707
2592.51
2648.59
2602.3
2639.56
2573.54
2657.61
2595.17
2603.12
2555.03
2557.53
2546.49
2582.61
2648.06
2588.17
2546.48
2550.54
2546.48
2546.49
2546.74
2555.49
2554.83
2559.33
2547.06
2546.48
2546.48
2546.48
2546.48
2546.48
2546.48
2546.48
2546.48
2546.48
2546.48
2546.48
2546.48
2546.48
2546.48
2546.48
2546.48
2546.48
2546.56
2546.48
2546.48
2546.48
2546.48
2546.48
2546.48
2546.48
5098.07
5115.96
5134.3
5162.98
5173.84
5158.02
5236.04
5211.75
6273.78
6122.35
6795.5
5567.54
7280.29
6074.96
7265.01
6634.71
7213.3
6921.14
6925.68
7627.02
5707.07
5603.95
7740.14
5999.91
5278.78
5222.13
5165.37
5155.37
5155.17
5137.11
5109.29
5098.63
2636.38
2608.46
2640.01
2664.03
2702.36
2749.25
2762.82
2780.81
2746.09
2758.67
2866.26
2748.34
2848.96
3047.39
3337.07
3377.98
3168.24
3093.46
3885.15
3252.49
3141.2
3045.98
3245.2
3662.93
3748.22
3771.23
2990.46
4381.49
3106.65
3421.2
3042.39
3033.11
3287.94
2858.69
3003.53
2815.57
2782.9
2857.59
2818.29
2754.31
2761.52
2766.73
2663.27
2644.65
2573.78
2588.21
2706.22
2691.74
2740.6
2672.4
2824.26
2759.45
2718.33
2729.85
2866.32
2915.77
2831.27
2968.82
3002.23
2874.11
2983.88
3025.98
2857.41
3079.17
2889.34
2853.82
2858.38
2826
2694.31
2715.6
2738.28
2706.45
2683.26
2706.43
2703.55
2711.07
2602.37
2597.67
2682.03
2586.34
2686.84
2678.06
2822.2
2690.49
2701.55
2854.29
2684.69
2883.14
2634.13
2886.8
2695.25
2821.03
2685.37
2757.37
2582.24
2632.77
2624.41
2598.75
2645.09
2599.64
2567.65
2546.92
2601.54
2585.8
2564.86
2685.42
2707.17
2592.5
2678.6
2568.36
2567.63
2556.68
2546.48
2551.63
2546.48
2560.61
2600.02
2613.17
2608.42
2551.72
2546.83
2546.48
2546.48
2546.48
2546.48
2546.48
2546.78
2546.83
2546.75
2546.74
2546.76
2546.74
2546.93
2546.48
2546.48
2546.48
2546.48
2546.48
2568.2
2568.2
2568.2
2568.2
2568.2
2546.48
2546.56
2546.56
2546.56
2546.56
2546.56
2546.56
2546.48
2546.48
5100.42
5114.38
5145.11
5161.22
5187.69
5207.65
6141.4
5330.32
5336.05
7225.01
5684.27
7614.16
7646.97
5867.55
8347.29
8397.48
9883
7781.31
8480.17
8166.96
6063.94
6038.43
7732.11
7451.69
6792.43
5493.2
7032.84
6283.17
5253.96
5363.47
5330.92
5184.21
5154.46
5163.85
5133.03
5098.51
2561.8
2688.57
2664.2
2726.73
2715.21
2743.16
2800.35
2811.73
2982.56
2848.73
2902.88
3190.65
3277.62
2974.46
3032.65
3749.91
3805.5
3301.45
5221.06
3648.68
3910.16
4444.56
5006.5
4286.86
3803.84
4803.07
4751.3
4905.24
3878.6
3740.86
3640.23
3318.6
3936.32
3008.47
3287.54
3821.55
3004.23
3155.16
2842.88
2892.98
2755.51
2814.89
2712.83
2722.74
2784.56
2731.51
2673.5
2654.07
2601.16
2626.93
2655.67
2616.29
2700.7
2713.8
2700.93
2754.62
2929.95
3060.66
3022.37
3107.12
2958.53
4217.27
3001.68
3190.42
4112.8
4356.67
4346.11
2921.05
3326.04
4220.59
2957.27
4263.95
4262.06
2917.84
3282.32
4219.4
2962.97
3028.38
2850.55
2993.86
2726.97
2857.26
2758.12
2692.89
2677.09
2644.04
2663.91
2570.15
2629.08
2551.6
2596.15
2606.56
2598.84
2687.28
2734.93
2665.89
2864.85
2750.49
2680.39
2891.88
2928.28
3180.03
2915.86
3147.11
4280.41
4456.82
2973.88
2968.77
3124.92
2613.61
2917.64
2920.85
2923.25
2704.26
2651.57
2702.04
2702.22
2692.26
2687.17
2615.8
2591.69
2611.6
2547.26
2546.79
2612.1
2597.72
2581.61
2678.26
2869.04
2704.08
2869.56
3119.69
2851.72
2873.52
3122.15
2880.96
2659.31
2856.16
2873.35
2675.65
2699.43
2555.62
2605.39
2546.48
2546.48
2546.48
2556.23
2593.58
2609.47
2593.47
2593.53
2614.65
2592.46
2551.23
2546.48
2546.48
2546.48
2546.48
2546.75
2970.36
2970.35
2970.38
2970.36
2970.36
2546.74
2546.48
2546.48
2546.48
2568.2
2683.15
2568.2
2683.15
2683.15
2683.16
2683.15
2683.14
2683.15
2568.2
2568.2
2546.48
2546.48
2546.56
3197.64
3197.64
3197.64
2546.56
2546.48
2546.48
2546.48
2895.59
2895.59
2895.59
2895.59
2895.59
2546.48
2546.48
2705.27
2705.28
2705.27
2705.27
2705.27
2705.27
2705.27
5115.03
5151.55
5151.59
5230.31
5258
5416.66
5654.76
5449.14
8278.6
7561.85
8048.14
8401.68
6385.12
7101.5
9465.84
7084.79
8526.55
8708.29
8128.4
9904.48
9724.93
10265.3
8220.35
11044.2
10805.2
8855.72
8451.86
7381.37
6100.49
8398.92
7316.93
7530.95
7566.96
5351.46
5153.74
5234.86
5120.95
5167.68
5131.34
5100.12
2557.1
2600.72
2606.53
2745.3
2741.22
2728.76
2787.65
2752.73
2799.04
2930.74
2786.5
2820.32
3133.56
3869.36
3825.84
3070.5
3243.47
3771.7
4564.93
4802.64
4942.18
4013.43
4931.44
5149.81
4668.85
4965.98
5164.14
4838.14
5181.27
7082.1
4792.37
6163.1
5145.96
3929.96
4866.72
4833.99
3823.3
4544.66
4954.7
3636.81
3874.27
3329.42
3247.31
3782.28
3909.77
2740.04
3097.35
3198.38
3905.79
3189.7
2744.4
2857.23
2891.47
2742.4
2729.04
2682.89
2666.84
2622.41
2584.3
2640.07
2742.28
2653.08
2724.76
2654.48
2709.52
2721.36
2937.56
2765.72
2963.29
2896.63
3224.21
2940.87
3006.37
4209.15
4527.56
4317.74
4237.51
4465.22
4633.61
4336.2
4283.38
4277.22
4996.24
4265.43
4331.27
4586.61
4322.77
4268.67
4206.29
4300.31
4475.08
4499.66
2994.84
4290.46
4202.65
2976.3
3325.67
2830.18
3032.19
2905.26
2737.24
2708.22
2755.58
2689.03
2675.48
2674.13
2619.86
2714.19
2688.29
2790.08
2697.59
2928.84
3183.75
4277.63
2913.71
4249.81
4469.85
5024.97
5889.19
4995.37
5780.93
5016.15
5838.12
4533.39
4927.99
4836.97
4998.77
3168.38
2921.58
4545.15
2930.81
2917.71
2695.76
2659.38
2720.94
2584.78
2612.19
2574.52
2623.8
2593.63
2585.9
2692.36
2691.28
2875.04
2873.84
3340.66
3111.91
3630.77
3552.19
3584.78
4555.31
4566.27
4523.91
3558.88
3632.64
4551.11
4458.57
3562.25
3132.25
2855.54
2877.59
2685.64
2586.65
2583.22
2554.25
2546.48
2549.64
2607.48
3531.72
3533.72
3529.56
3528.2
3528.76
3528.85
3524.21
3531.44
3519.37
2606.55
2555.29
2546.48
2546.48
2546.48
2546.78
2970.36
2970.37
4246.58
4246.54
4246.51
4246.54
4246.54
2970.38
2970.35
2546.78
2546.48
2546.48
2546.48
2568.2
2683.15
2683.15
3637.22
3637.2
3637.19
3637.24
3637.2
3637.19
3637.22
2683.15
2568.2
2683.15
2546.48
2546.48
2546.56
3197.62
3197.63
3197.62
3197.62
3197.63
3197.62
2546.56
2546.48
2546.48
2895.6
2895.59
2895.59
2895.59
2546.48
2705.28
2705.26
2705.27
2705.27
10036
5100.53
5115.16
5129.45
5149.1
5212.95
5151.34
5342.29
6055.14
6728.29
7955.48
8151.56
8116.99
8337.73
8473.23
9704.08
7873.2
7666.9
9878.54
13124.4
11001.8
15629.9
12239.7
16839.9
12458
17539.3
12979.2
12859.4
14797.5
9700.18
10585.3
8624.78
10021.5
10172.3
8181.5
5750.07
7318.87
6857.99
5978.94
5289.08
6434.47
5200.4
5158.26
5114.74
5108.93
2673.93
2650.01
2655.28
2696.39
2638.17
2723.28
2726.28
2806.89
2901.47
3045.76
3073.99
3204.15
3811.68
3791.29
4404.94
3768.09
6670.02
4501.29
3924.79
4693.98
6927.86
6997.16
9267.88
8114.82
11970.3
10400.8
6048.32
5095.17
10621
10279.2
12538.4
6179.1
12327.6
7844.78
11463.7
10472.7
13480.6
13582.6
11686.6
6196.13
11161.2
10487.1
13338.3
7612.81
11598.5
6148.47
7912.41
7946.84
10478.3
9186.68
4937.4
7084.85
7030.67
4684.44
10826.4
5993.69
7879.34
4560.54
5047.49
4569.55
5379.52
3783.08
4318.4
3848.55
3292.22
3808.57
3028.78
3184.77
2900.41
2890.83
2823.52
2734.88
2740.75
2719.33
2735.29
2647.6
2660.2
2592.76
2682.51
2675.44
2741.91
2693.18
2834.05
2690.78
2897.42
3158.35
4171.26
2946.15
4337.97
4334.68
4301.8
4284.65
4211.62
4605.64
4237.41
4571.94
4579.27
4987.7
4160.88
5004.59
5963.96
4459.06
5891.77
5153.36
6018.45
4427.08
4372.5
5061
4263.36
4305.3
4251.09
4334.08
4387.03
3115.35
3646.29
2856.2
2725.37
2798.34
2748.89
2701.47
2676.45
2623.73
2693.67
2571.78
2635.85
2550.85
2587.99
2598.76
2629.74
2620.84
2663.32
2671.56
2685.41
2825.54
2696.18
2979.66
4954.19
4513.7
4491.76
3147.27
4987.45
7494.11
5009.4
5935.46
4736.49
5502.46
5485.18
7507.68
5821.92
7528.21
7550.06
7524.14
7512.77
7504.34
7572.65
5743.46
7504.7
4902.75
5796.33
5829.14
5905.9
3103.03
4935.12
4455.49
5051.76
2892.44
3037.88
2669.56
2730.8
2595.14
2695.28
2701.9
2615.06
2599.68
2546.88
2546.99
2559.47
2608.42
2575.16
2575.88
2666.21
3118.55
2890.74
3469.49
3636.5
6651.57
4556.32
3613.2
4478.61
4359.65
6631.43
6630.97
6641.32
6647.71
11014.5
11010.2
11015.5
11025.4
6628.13
6630.13
6647.08
11020
11016.9
11022.1
6645.82
4477.91
4548.7
3603.01
4529.22
3611.88
3506.3
2673.84
2912.77
3086.87
2573.11
2597.99
2586.08
2561.52
2546.49
2546.48
2546.48
2548.81
2594.23
3531.42
3528.22
5118.76
5118.87
5118.94
5118.67
5118.87
5118.75
5118.65
5118.85
5118.66
5118.78
5118.8
3519.35
3530.47
2594.56
2549.32
2546.48
2546.48
2546.48
2546.48
2546.48
2546.75
2546.78
2970.36
2970.38
4246.49
4246.54
4246.54
10088.9
10088.9
10088.9
4246.54
4246.54
4246.56
2970.36
2970.36
2546.75
2546.75
2546.48
2546.48
2546.48
2546.48
2568.2
2683.15
3637.2
3637.22
3637.17
8376.22
8376.19
8376.2
8376.19
8376.19
8376.22
8376.19
3637.17
3637.22
3637.2
2683.14
2568.2
2546.48
2546.48
2546.56
2546.56
3197.62
3197.63
7164.64
7164.75
7164.67
7164.71
7164.75
7164.64
7164.67
7164.75
7164.71
3197.63
3197.62
2546.56
2546.56
2546.48
2546.48
2895.58
2895.59
6271.62
6271.66
6271.65
6271.62
6271.62
6271.62
6271.62
6271.65
6271.62
2895.59
2895.59
2546.48
2705.27
5583.38
5583.38
5583.42
5583.38
5583.4
5583.34
5583.37
5583.35
5583.36
5583.37
5583.38
2705.27
10036
10036
10035.9
10036
10036
10036
10036
10036
10035.9
10036
5098.05
5113.77
5140.56
5186.47
6059.84
5239.08
5253.03
5872.96
6724.91
7259.21
6617.34
7476.17
7560.47
8837.94
9621.85
10256.8
7066.37
10075.5
5698.65
7793.04
5824.1
5596.33
5719.33
5941.36
10824.1
11628.3
11085
7474.8
7434.75
7076.86
8697.33
6118.04
7719.7
6595.65
5461.09
5342.43
5971.61
5213.97
5128.62
5139.03
5114.45
5098.27
2633.95
2679.57
2728.37
2772.03
2727.73
2832.6
2763.41
2732.47
2904.55
2885.47
3277.81
3371.87
3675.4
3748.72
3353.78
3882.77
3718.04
4615.41
4065.24
4893.44
7036.24
5272.01
4842.62
6129.07
6117.78
11750.5
11016.5
12907.8
13081.6
12830.5
7865.27
12019
10633.2
8003.34
7811.07
7807.08
18115.2
18303.7
13754.5
13878.2
16091.4
19540.4
19128.3
17403.6
11458.7
17173.1
18050.4
11558.2
19822.6
13421.8
19422.2
18811.6
19821.3
18686.1
19650.5
19478.9
19422.9
19428.3
11526.2
19451.9
10091
11311.8
11636.8
5990.74
6097
12817.1
7805.9
11343.4
12437.5
12317.2
8166.38
10850.7
7129.52
5067.84
4789.41
5115.21
7103.5
4755.39
4376.06
4793.76
3785.07
3130.41
3240.44
3616.67
2884.67
2945.01
2973.49
2769.44
2839.26
2839.86
2750.09
2702.1
2713.06
2641.59
2627.17
2602.94
2619.65
2663.7
2570.28
2682.13
2716.66
2709.78
2743.75
2785.82
2793.79
3003.01
2906.63
2926.85
4279.01
4296.96
4506.31
4229.7
4215.71
5009.78
4408.06
5143.47
5016.02
5977.6
7543.37
7681.96
7483.1
7508.98
5878.58
5033.02
4619.12
6078.45
4354.07
4288.03
4435.27
4264.41
4509.94
4196.7
3272.8
2989.08
4249.16
2906.16
2989.53
2841.66
2741.05
2739.74
2705.61
2729.98
2652.97
2559.16
2547.17
2607.87
2671.36
2640.28
2902.08
2836.94
2701.07
2962.27
3119.42
3125.51
4507.61
5827.2
5016.94
4773.4
5784.8
7512.09
5825
7525.67
7483.41
7507.36
5896.06
5844.44
7524.83
7510.92
7499.95
7473.72
4538.5
4942.09
4936.76
5832.31
4453.24
2931.85
2908
3136.88
2656.81
2696.25
2722.63
2633.25
2594.39
2594.03
2547.07
2546.5
2559.64
2604.84
2570.52
2691.95
2677.77
2863.84
2876.27
4457.21
4552.98
4557.19
3608.97
3557.69
11006.2
11006
11003.5
11014.4
6641.61
6649.66
6633.78
6632.44
19255.6
19254.9
19250.2
19262.3
19261.3
19264.7
11021.1
13950.3
19264.6
19266.9
19250.7
19258.9
19258.5
19259.1
19260.1
19262.6
11028.1
11025.6
19259.8
19260.7
19259.5
11020.5
11019.5
11019.3
4558.37
6637.27
6632.35
6629.92
6639.55
4554.69
3472.69
3626.4
4502.84
3106.19
2904.55
2873.05
2681.7
2687.62
2580.35
2557.19
2546.49
2546.48
2546.48
2547.01
2593.46
2613.4
3522.34
3533.34
5118.63
5119.12
5118.73
12895.6
12895.9
12896.4
12896.1
12894.6
12894.5
12895.6
12896.7
4192.01
12896.5
12896.1
12895.5
12896.8
12895.8
12897.7
12893.7
12893.6
12894.4
5118.68
5118.83
5118.71
3517.91
3529.79
2596.2
2601.86
2551.82
2546.48
2546.48
2546.48
2546.48
2546.48
2546.74
2970.35
2970.37
4246.54
4246.51
4246.58
10088.9
10088.9
2547.81
10088.9
10088.9
10088.9
10088.9
10088.9
10088.9
10088.8
10088.9
10088.9
10088.9
10088.9
10088.9
4246.54
4246.51
4246.54
2970.37
2970.35
2546.75
2546.48
2546.48
2546.48
2546.48
2568.2
2568.2
2683.15
2683.15
3637.24
3637.19
8376.22
8376.2
8376.19
8376.19
8376.23
2546.48
8376.22
8376.23
8376.19
8376.2
8376.19
3637.19
3637.24
2683.16
2683.15
2568.2
2568.2
2546.48
2546.48
2546.56
3197.64
3197.64
7164.67
7164.75
7164.75
7164.71
2546.48
7164.67
7164.71
7164.75
7164.75
3197.64
3197.64
2546.56
2546.48
2546.48
2895.59
2895.59
6271.62
6271.66
6271.65
6271.62
2546.48
6271.65
6271.62
6271.66
6271.62
2895.59
2895.59
2546.48
2705.27
2705.27
5583.39
5583.34
5583.38
2546.48
5583.38
5583.39
5583.34
2705.27
2705.27
10036
10036
10036
5092.96
10036
10036
10036
5097.91
5105.96
5120.22
5140.33
5225.66
5870.18
6333.6
5393.73
7328.69
7239.47
8574.49
7326.06
7749.75
8322.12
9431.85
8352.16
8529.88
15108
16081.2
12322.5
17102.7
9970.7
6964.28
5964.35
11759.3
12443.8
10395.7
8973.46
8354.44
8000.21
8417.73
6752.74
6774.78
5748.89
6148.53
5181.97
5857.89
5158.12
5144.07
5129.35
5114.87
5098.2
2576.84
2606.72
2689.73
2728.54
2802.21
2898.35
2865.45
3333.04
3090.4
3634.17
3106.69
3742.25
6485.48
5220.51
4603.92
6056.73
4798.34
4912.45
9838.38
11921.6
8039.02
11768.3
7865.16
12446.4
7175.34
11531
12943.5
7784.6
19340
20973.3
7668.38
20774.6
13119.2
19793.5
19683.4
20159.4
19718.4
20760.4
11188.5
11386.5
7751.26
7918.96
10645.3
7732.31
20510.7
19487.5
20123.8
19118.7
19440.3
19484.3
11267
11395.1
20034.7
11428
10540.8
6030.1
7912.65
11905.8
12953.9
5176.46
10729.6
11223.9
7822.69
11091.1
6120.75
6776.29
5175.59
4900.59
6836.44
3935.3
3860.06
3281.03
4488.95
3813.97
4226.66
3067.09
3136.36
3797.35
3849.44
3208.01
2886.49
3176.74
2724.86
2961.06
2775.82
2774.91
2708.11
2673.07
2591.27
2568.54
2616.81
2602.98
2601.93
2805.59
2692.16
2936.54
2788.96
3054.29
4210.87
4217.01
3206.89
2945.94
4209.02
2969.5
4263.29
5145.49
4277.79
4509.08
4204.56
4967.25
4455.73
5826.54
6003.53
5032.41
7593.08
5874.13
5854.32
4929.92
5064.19
4222.28
4390.86
4248.49
4299.96
3021.27
2995.27
3028.18
2796.12
2751
2724.32
2698.73
2715.33
2658.83
2623.05
2611.99
2670.15
2607.27
2857.49
2612.56
2679.28
2891.84
2679.62
2907.74
5823.03
4958.21
4670.19
7479.04
7513.52
7510.17
5813.14
7479.28
7492.47
7488.53
5595.93
5881.11
4956.09
4994.33
4482.7
2940.09
2961.23
3146.12
2689.92
2813.78
2685.26
2618.29
2579.9
2678.8
3110.25
2874.7
3608.29
4535.58
3555.17
4544.25
6632.32
11009.8
11017.1
11007.8
6640.51
6628.93
11029
11028.7
19249.6
19257.7
19253.5
19248.1
19256.5
19244.2
19244.4
19265
19250.4
19256.5
19251.1
19255.1
19246.6
19244.8
19246.2
11030.4
11032.1
11030
11024.9
4563.3
11021.4
6637.23
6633.92
6631.72
4531.55
3572.56
2885.25
2672.78
2588.75
2603.8
2609.57
3533
5119.18
5118.11
12895.9
12896.3
12895
12896.3
12897.5
12897.2
12895.4
12894.5
12896.5
12894.8
12895.1
12896.4
12895.4
12896.5
12895.5
5118.89
5118.65
3530.34
2596.69
2546.85
2970.39
4246.54
4246.58
10088.9
10088.9
10088.9
10088.9
10088.8
10088.9
10088.9
10088.9
10088.9
10088.9
10088.9
10088.9
10088.9
10088.9
10088.9
4246.54
4246.54
2970.36
2546.75
2568.2
2683.15
3637.2
3637.19
8376.19
8376.19
8376.22
8376.23
8376.22
8376.22
8376.23
8376.22
8376.19
8376.19
3637.19
3637.2
2683.15
2568.2
2546.56
3197.64
7164.64
7164.71
7164.75
7164.67
7164.64
7164.71
7164.67
7164.75
3197.64
2546.56
2895.59
6271.62
6271.62
6271.65
6271.65
6271.62
6271.62
2895.59
2705.27
5583.34
5583.38
5583.38
5583.38
5583.38
5583.34
2705.27
10036
10036
10036
10036
5102.21
5150.48
5171.32
5188.85
5228.65
5757.92
5452.72
6764.97
7099.84
7339.59
7295.56
7963.58
8570.57
10275.7
9835.71
8447.74
11662.3
8713.94
12258.3
12076.8
12257.4
10774.3
12941
14333.7
13085.3
13506.5
17203.5
11386.9
11085.8
16114.6
8276.22
7907.12
9937.24
10351.9
9621.16
8297.47
10763
9231.93
8204.1
8810.74
7665.96
7413.96
5660.68
5387.64
6117.49
5248.37
5272.74
5197.62
5186.28
5109.21
5102.08
2627.56
2710.17
2703.99
2677.14
2661.62
2809.79
2762.69
2823.79
3047.1
2883.5
3305.85
2931.49
2864.93
3212.69
3791.22
3747.55
4120
3798.59
3288.1
3257.67
4401.68
4503.45
4833.66
3792.05
4586.05
4743.85
4777.34
5666.85
5178.28
7938.96
4950
6095.79
6038.44
11469.1
7196.03
7892.36
7900.72
6182.98
7720.23
11778
11102.3
13536
14030.4
13911.4
11006.5
11839.2
7728.28
7839.97
6131.05
6032.85
13534.7
8334.87
7157.6
4879.77
7029.04
6091.32
5137.07
8030.38
5772.66
4662.26
5507.43
4831.92
3807.73
3779.25
3695.6
4457.05
3177
3225.44
2858.15
2732.56
2809.15
2789.57
2703.24
2777.55
2765.75
2786.42
2635.98
2625.78
2642.79
2632.19
2620.59
2562.84
2667.62
2622.68
2682.24
2589.02
2704.41
2677
2781.5
2760.1
2723.83
2904.54
3033.37
4260.68
3020.52
4512.44
4294.54
4221.29
4262.77
4357.6
4295.49
4431.86
4417.98
5171.93
5995.05
4101.76
4995.14
6127.31
5053.5
4917.23
4522.07
4273.76
4369.77
4642.69
4254.17
4334.55
4192.12
4233.25
4288.02
2937.85
3125.7
4159.15
2913.21
2646.64
2686.52
2761.12
2679.1
2710.5
2632.43
2642.69
2547.06
2602.27
2690.7
2710.16
2678.88
2707.88
2772.34
3123.02
2984.12
4944.1
4429.64
7494.18
5876.13
5898.92
5872.17
4845.53
7489.32