# vtk DataFile Version 3.0
Happy Go Lucky
ASCII
DATASET POLYDATA
POINTS 3856 float
0 -0.686982 -1
-0.185087 -1.01359 -0.960822
-0.0484146 -1.01505 -0.903522
0.183314 -1.01358 -0.960706
0.0254053 -0.994159 -0.960636
-0.37533 -0.882075 -0.906127
-0.191341 -0.882075 -0.961939
8.90002e-23 -0.882075 -0.980785
0.191342 -0.882075 -0.96194
0.37533 -0.882075 -0.906127
-0.382683 -0.686982 -0.923879
-0.19509 -0.686982 -0.980784
0 -0.686982 -0.9
0.19509 -0.686982 -0.980785
0.382683 -0.686982 -0.923879
-0.37533 -0.491888 -0.906127
-0.191341 -0.491888 -0.961939
0 -0.491888 -0.980785
0.191342 -0.491888 -0.96194
0.37533 -0.491888 -0.906127
-0.18024 -0.304296 -0.906127
0 -0.304296 -0.923879
0.18024 -0.304296 -0.906127
-0.523285 -1.0136 -0.81269
-0.300931 -1.01575 -0.85834
-0.393579 -1.01356 -0.884776
-0.204555 -1.01538 -0.866714
-0.112752 -1.01799 -0.827941
0.050061 -1.0172 -0.851758
0.200957 -1.01543 -0.86659
0.131913 -1.01774 -0.798714
0.268217 -1.01513 -0.799768
0.310611 -1.01371 -0.883483
0.407316 -1.01354 -0.886895
0.523196 -1.01358 -0.820033
-0.343007 -0.949124 -0.807172
-0.132891 -0.958156 -0.88908
-0.17929 -0.943707 -0.814465
-0.0569544 -0.948534 -0.824571
0.0059965 -0.944637 -0.879019
0.126743 -0.960012 -0.866813
0.19798 -0.955104 -0.795854
0.33521 -0.954521 -0.797805
-0.544895 -0.882075 -0.815493
-0.337783 -0.862308 -0.815543
-0.172207 -0.862562 -0.865747
-6.72529e-05 -0.86154 -0.882768
0.172208 -0.862566 -0.865746
0.337798 -0.862546 -0.815519
0.544895 -0.882075 -0.815493
-0.555569 -0.686982 -0.831469
-0.344414 -0.686982 -0.831491
-0.175581 -0.686982 -0.882706
0 -0.686982 -0.8
0.175581 -0.686982 -0.882707
0.344415 -0.686982 -0.831492
0.55557 -0.686982 -0.831469
-0.337797 -0.511397 -0.815514
-0.172207 -0.511397 -0.865745
0 -0.511397 -0.882707
0.172208 -0.511397 -0.865746
0.337797 -0.511397 -0.815515
-0.544895 -0.491888 -0.815493
0.544895 -0.491888 -0.815493
-0.353553 -0.304296 -0.853553
-0.162216 -0.342564 -0.815514
0 -0.342564 -0.831491
0.162216 -0.342564 -0.815515
0.353553 -0.304296 -0.853553
-0.162211 -0.131409 -0.815493
0 -0.131409 -0.83147
0.162212 -0.131409 -0.815493
-0.69129 -1.01354 -0.704065
-0.528495 -1.01559 -0.716505
-0.372507 -1.01841 -0.760587
-0.287164 -1.01714 -0.709478
-0.19112 -1.02008 -0.772682
-0.104525 -1.01748 -0.73446
-0.0187892 -1.01616 -0.782463
0.0629996 -1.02203 -0.735008
0.202773 -1.01996 -0.734503
0.310767 -1.01802 -0.716837
0.393513 -1.01706 -0.768759
0.526368 -1.01581 -0.723976
-0.453457 -0.967677 -0.75428
-0.265092 -0.976492 -0.786581
-0.294477 -0.925182 -0.732746
-0.197718 -0.942422 -0.726273
-0.116872 -0.926948 -0.764719
-0.0528334 -0.945245 -0.718036
0.000197294 -0.916323 -0.769473
0.0667237 -0.953896 -0.7881
0.130926 -0.970769 -0.714334
0.139494 -0.909402 -0.763579
0.277151 -0.936971 -0.737115
0.376606 -0.956278 -0.702657
0.459027 -0.956037 -0.74406
-0.490405 -0.862566 -0.733944
-0.300416 -0.840909 -0.724783
-0.153449 -0.842184 -0.770192
6.67431e-05 -0.835563 -0.786572
0.154984 -0.83035 -0.77177
0.30052 -0.842751 -0.725531
0.49041 -0.862561 -0.73395
-0.707106 -0.686982 -0.707106
-0.500012 -0.686982 -0.748322
-0.306146 -0.686982 -0.739103
-0.156072 -0.686982 -0.784627
-1.13766e-10 -0.686982 -0.7
0.156072 -0.686982 -0.784628
0.306147 -0.686982 -0.739104
0.500013 -0.686982 -0.748323
0.707107 -0.686982 -0.707107
-0.490405 -0.511397 -0.733944
-0.300264 -0.530906 -0.724902
-0.153073 -0.530906 -0.769551
0 -0.530906 -0.784628
0.153073 -0.530906 -0.769552
0.300264 -0.530906 -0.724902
0.490406 -0.511397 -0.733944
-0.51328 -0.304296 -0.768177
-0.318198 -0.342564 -0.768198
-0.144192 -0.380832 -0.724902
0 -0.380832 -0.739103
0.144192 -0.380832 -0.724902
0.318198 -0.342564 -0.768198
0.51328 -0.304296 -0.768178
-0.318189 -0.131409 -0.768177
-0.14599 -0.186965 -0.733943
0 -0.186965 -0.748323
0.145991 -0.186965 -0.733944
0.31819 -0.131409 -0.768178
0 0.0201251 -0.707107
-0.647858 -1.01727 -0.618987
-0.436666 -1.01846 -0.684194
-0.489641 -1.01999 -0.60386
-0.362233 -1.02219 -0.625166
-0.269176 -1.02006 -0.616553
-0.194618 -1.02056 -0.680232
-0.104577 -1.02445 -0.641067
-0.0211738 -1.02077 -0.688283
-0.0222337 -1.01946 -0.595609
0.0610837 -1.02242 -0.642442
0.165615 -1.02028 -0.649872
0.262925 -1.01956 -0.635652
0.356566 -1.02066 -0.634508
0.4396 -1.01728 -0.681256
0.603569 -1.01653 -0.667125
0.700016 -1.01359 -0.678121
-0.565563 -0.983228 -0.640055
-0.494224 -0.949524 -0.661651
-0.425908 -0.961445 -0.612791
-0.416286 -0.908505 -0.672606
-0.362962 -0.964986 -0.69193
-0.296346 -0.943933 -0.654101
-0.207626 -0.946331 -0.639769
-0.131377 -0.954975 -0.675492
-0.0535661 -0.953823 -0.636621
0.0361395 -0.952989 -0.691579
0.0294638 -0.949809 -0.608218
0.179479 -0.947439 -0.596391
0.10795 -0.945825 -0.639456
0.257424 -0.937162 -0.596835
0.222175 -0.95591 -0.678436
0.313102 -0.946731 -0.657513
0.412282 -0.958339 -0.611549
0.447891 -0.918192 -0.667462
0.518897 -0.969603 -0.646354
0.604933 -0.944084 -0.616169
-0.693521 -0.882076 -0.693523
-0.625433 -0.862763 -0.625813
-0.438316 -0.834095 -0.650772
-0.242589 -0.876 -0.620313
-0.267864 -0.804251 -0.639254
-0.121696 -0.899722 -0.610496
-0.135195 -0.87982 -0.692254
-0.134317 -0.80384 -0.670672
-0.0323498 -0.882486 -0.627635
-0.0068477 -0.803295 -0.689
0.0405028 -0.833535 -0.615322
0.0193969 -0.878446 -0.691883
0.102416 -0.885884 -0.689088
0.134133 -0.864524 -0.601643
0.184132 -0.891472 -0.659087
0.137874 -0.812611 -0.674469
0.269522 -0.877294 -0.650791
0.435503 -0.83724 -0.651765
0.69352 -0.882075 -0.69352
0.624342 -0.861882 -0.624233
0.26294 -0.799623 -0.635569
-0.636395 -0.686982 -0.636396
-0.444455 -0.686982 -0.665175
-0.267878 -0.686982 -0.646715
-0.136563 -0.686982 -0.686549
0.00014234 -0.68506 -0.600412
0.136563 -0.686982 -0.68655
0.267878 -0.686982 -0.646716
0.444456 -0.686982 -0.665176
0.636396 -0.686982 -0.636396
-0.624167 -0.511397 -0.624168
-0.435916 -0.530906 -0.652394
-0.262731 -0.550416 -0.634289
-0.133939 -0.550416 -0.673357
-1.22261e-25 -0.550416 -0.68655
0.133939 -0.550416 -0.673358
0.262731 -0.550416 -0.634289
0.435916 -0.530906 -0.652394
0.624168 -0.511397 -0.624168
-0.693519 -0.491888 -0.69352
-0.247487 -0.419101 -0.597487
-0.126168 -0.419101 -0.634289
0 -0.419101 -0.646715
0.126168 -0.419101 -0.634289
0.247487 -0.419101 -0.597487
0.69352 -0.491888 -0.69352
-0.653281 -0.304296 -0.653281
-0.410624 -0.380832 -0.614542
-0.461952 -0.342564 -0.69136
-0.282843 -0.380832 -0.682842
0.282843 -0.380832 -0.682843
0.410624 -0.380832 -0.614542
0.461952 -0.342564 -0.69136
0.653281 -0.304296 -0.653281
-0.254551 -0.242523 -0.614542
-0.129769 -0.242523 -0.652394
0 -0.242523 -0.665176
0.129769 -0.242523 -0.652394
0.254552 -0.242523 -0.614542
-0.415745 -0.186965 -0.622207
-0.461939 -0.131409 -0.691341
-0.28637 -0.186965 -0.69136
0.286371 -0.186965 -0.69136
0.415746 -0.186965 -0.622207
0.46194 -0.131409 -0.691342
-0.124155 -0.0505846 -0.624168
0 -0.0505846 -0.636396
0.124155 -0.0505846 -0.624168
-0.270598 0.0201251 -0.653281
-0.13795 0.0201251 -0.69352
0.13795 0.0201251 -0.69352
0.270598 0.0201251 -0.653281
-0.839638 -1.01346 -0.531984
-0.74783 -1.01655 -0.512623
-0.657695 -1.00411 -0.524772
-0.571589 -1.01668 -0.55798
-0.502086 -1.02092 -0.496156
-0.417503 -1.01903 -0.542608
-0.314241 -1.02076 -0.533029
-0.169901 -1.02 -0.501054
-0.182431 -1.01897 -0.588792
-0.0979646 -1.0404 -0.5495
-0.0218245 -1.01994 -0.50543
0.0494396 -1.04239 -0.549288
0.140968 -1.04175 -0.503909
0.118085 -1.00276 -0.575751
0.299703 -1.02134 -0.53282
0.208282 -1.02328 -0.563772
0.392122 -1.01956 -0.548213
0.47308 -1.02064 -0.592644
0.565301 -1.01601 -0.576911
0.507588 -1.02138 -0.502296
0.659499 -1.01381 -0.58208
0.728933 -1.01567 -0.516825
0.824216 -1.01358 -0.528297
-0.629076 -0.938095 -0.582957
-0.550388 -0.911261 -0.583869
-0.586229 -0.94147 -0.507056
-0.497505 -0.951804 -0.545127
-0.421693 -0.921316 -0.542641
-0.309592 -0.930278 -0.506466
-0.353461 -0.957646 -0.572563
-0.271161 -0.941536 -0.579581
-0.23563 -0.969935 -0.518204
-0.182509 -0.932467 -0.563897
-0.110125 -0.970553 -0.574949
-0.0943233 -0.976841 -0.499737
-0.039916 -0.938641 -0.544931
0.101595 -0.921917 -0.552409
0.0411282 -0.971755 -0.531232
0.162655 -0.976596 -0.508299
0.242069 -0.95719 -0.523707
0.334379 -0.956514 -0.573831
0.407735 -0.909749 -0.548022
0.481497 -0.947276 -0.545271
0.565829 -0.948638 -0.512397
0.541475 -0.907917 -0.580465
0.659807 -0.956323 -0.502488
-0.815493 -0.882075 -0.544895
-0.504925 -0.853062 -0.529624
-0.57283 -0.828071 -0.566407
-0.344477 -0.881835 -0.583103
-0.31738 -0.84898 -0.507961
-0.386129 -0.814166 -0.570148
-0.239975 -0.883525 -0.524187
-0.184694 -0.832617 -0.552952
-0.122449 -0.883593 -0.524682
-0.077417 -0.834883 -0.583484
-0.0717821 -0.821476 -0.503249
0.00991383 -0.82096 -0.516311
0.0873889 -0.841993 -0.535388
0.0198388 -0.889462 -0.558631
0.185291 -0.895325 -0.536117
0.25076 -0.839958 -0.539609
0.287732 -0.899779 -0.500734
0.360985 -0.859318 -0.495393
0.33106 -0.879016 -0.583752
0.385231 -0.818173 -0.570824
0.492563 -0.806595 -0.502724
0.558776 -0.831322 -0.554068
0.815493 -0.882075 -0.544895
-0.242033 -0.771108 -0.55541
-0.128402 -0.771674 -0.578724
-0.00859603 -0.76987 -0.587629
0.0923505 -0.739579 -0.520798
0.116144 -0.782505 -0.589413
0.219944 -0.771008 -0.564449
0.327639 -0.783133 -0.495554
-0.831468 -0.686982 -0.55557
-0.748322 -0.686982 -0.500013
-0.565685 -0.686982 -0.565685
-0.388898 -0.686982 -0.582028
-0.333357 -0.686503 -0.498961
-0.229407 -0.68461 -0.554384
-0.0975948 -0.673348 -0.495721
-0.116987 -0.686169 -0.588666
0.000362753 -0.667664 -0.506429
0.117202 -0.68661 -0.588916
0.229842 -0.685347 -0.55444
0.388899 -0.686982 -0.582029
0.333361 -0.686975 -0.498909
0.565685 -0.686982 -0.565685
0.748323 -0.686982 -0.500013
0.83147 -0.686982 -0.55557
-0.554815 -0.530906 -0.554816
-0.381426 -0.550416 -0.570845
-0.225199 -0.569924 -0.543679
-0.114805 -0.569925 -0.577165
1.11744e-09 -0.569925 -0.588472
0.114807 -0.569923 -0.577172
0.2252 -0.569924 -0.54368
0.381427 -0.550416 -0.570845
0.554816 -0.530906 -0.554816
-0.815493 -0.491888 -0.544895
-0.359296 -0.419101 -0.537724
[...]
POINT_DATA 3856
SCALARS scalar float
LOOKUP_TABLE default
2546.48
5097.97
5102.28
5098.14
2547.04
2546.48
2546.48
2546.48
2546.48
2546.48
2546.48
2546.48
2546.48
2546.48
2546.48
2546.48
2546.48
2546.48
2546.48
2546.48
2546.48
2546.48
2546.48
5097.87
5108.93
5097.82
5105.52
5124.38
5113.75
5106.56
5121.61
5117.11
5100.44
5097.66
5097.95
2583.15
2563.56
2602.48
2609.83
2599.99
2554.67
2595.64
2570.76
2546.48
2554.98
2546.57
2567.46
2546.48
2547.34
2546.48
2546.48
2546.48
2546.48
2546.48
2546.48
2546.48
2546.48
2546.48
2546.48
2546.48
2546.48
2546.48
2546.48
2546.48
2546.48
2546.48
2546.48
2546.48
2546.48
2546.48
2546.48
2546.48
5098.17
5107.07
5124.76
5114.92
5145.02
5122.18
5113.35
5166.54
5145.46
5123.59
5113.11
5109.03
2555.5
2627.52
2649.43
2595.2
2635.83
2676.09
2691.89
2620.57
2648.01
2682.63
2601.47
2619.55
2571.59
2546.48
2562.97
2554.95
2573.41
2581.62
2553.97
2546.56
2546.48
2546.48
2546.48
2546.48
2546.48
2546.48
2546.48
2546.48
2546.48
2546.48
2546.48
2546.48
2546.48
2546.48
2546.48
2546.48
2546.48
2546.48
2546.48
2546.48
2546.48
2546.48
2546.48
2546.48
2546.48
2546.48
2546.48
2546.48
2546.48
5115.7
5125.84
5138.92
5164.16
5143.83
5146.45
5204.09
5148.27
5183.78
5169.13
5145.11
5143.14
5146.85
5117.76
5111.08
5097.62
2596.77
2610.92
2687.59
2668.8
2660.01
2691.73
2677.36
2715.47
2735.59
2674.82
2707.55
2717.25
2704.12
2749.98
2666.07
2685.72
2681.01
2654.62
2568.67
2607.97
2546.51
2569.19
2583.37
2663.15
2598.98
2683.03
2686.62
2594.12
2722.38
2591.17
2608.49
2717.75
2677.96
2663.95
2687.28
2581.6
2674.55
2570.03
2546.48
2561.58
2599.79
2546.48
2546.48
2546.48
2546.48
2559.98
2546.48
2546.48
2546.48
2546.48
2546.48
2546.48
2546.48
2546.48
2546.48
2546.48
2546.48
2546.48
2546.48
2546.48
2546.48
2546.48
2546.48
2546.48
2546.48
2546.48
2546.48
2546.48
2546.48
2546.48
2546.48
2546.48
2546.48
2546.48
2546.48
2546.48
2546.48
2546.48
2546.48
2546.48
2546.48
2546.48
2546.48
2546.48
2546.48
2546.48
2546.48
2546.48
2546.48
2546.48
2546.48
2546.48
5099.67
5115.46
5110.57
5122
5154.59
5136.62
5156.95
5234.57
5156.29
5772.05
5272.1
5909.72
5949.84
5267.59
5160.46
5195.27
5153.67
5151.19
5113.07
5150.17
5101.15
5107.59
5098.03
2599.86
2651.04
2610.75
2670.8
2696.59
2779.38
2747.79
2774.39
2778.56
2737.38
2818.92
2967.74
2675.3
2700.43
2813.49
3014.06
2805.6
2708.44
2675.59
2667.38
2640.73
2674.58
2574.55
2546.48
2647.32
2602.37
2660.04
2677.97
2584.32
2701.53
2632.45
2684.95
2691.06
2713.96
2694.66
2709.2
2784.56
2688.98
2663.98
2746.15
2648.38
2637.07
2579.44
2608.59
2583.75
2546.48
2592.63
2601.11
2583.16
2642.95
2601.88
2627.53
2594.88
2546.48
2546.48
2546.48
2546.48
2554.04
2556.9
2592.61
2557.49
2606.14
2551.53
2559.47
2546.48
2546.74
2546.48
2546.48
2546.48
2546.48
2546.48
2546.48
2546.48
2546.48
2546.5
2546.49
2546.48
2546.48
2546.48
2546.48
2546.48
2546.48
2546.48
2546.48
2546.48
2546.48
2546.48
2546.48
2546.48
2546.48
2546.59
2546.48
2546.48
2546.48
2546.48
2546.48
2546.48
2546.48
2546.48
2546.48
2546.48
2546.48
2546.48
2546.48
2546.48
2546.48
2546.48
2546.48
2546.48
2546.48
2546.48
2546.48
2546.48
2546.48
2546.48
2546.48
2546.56
2546.48
2546.48
2546.48
2546.48
2546.48
2546.48
2546.48
5097.93
5121.54
5175.2
5140.5
5199.12
5233.45
5296.71
5372.67
6011.22
6268.94
5363.36
5339.07
5307.1
5212.88
5215.2
5182.64
5156.72
5145.88
5113.36
5097.88
2582
2670.51
2646.4
2647.7
2736.11
2746.71
2728.22
2865.82
2854.04
3044.46
2809.36
3126.37
3424.96
2780.01
3167.62
2895.81
2787.14
3237.16
3030.76
3358.33
2850.2
2749.24
3002.2
2765.17
2830.28
2755.23
2736.19
2713.64
2754.76
2705.74
2637.2
2674.41
2557.27
2547.04
2571.41
2726.21
2654.47
2695.5
2738.91
2702.09
2692.36
2794.02
2790.18
2726.51
2841.68
2845.54
2744.19
3000.85
2748.55
2708
2668.45
2686.84
2692.98
2641.82
2566.52
2546.48
2566
2627.01
2604.84
2630.52
2661.47
2610.83
2851.29
2916.35
2648.05
2881.34
2807.46
2725.43
2711.42
2624.34
2638.64
2596.35
2546.48
2572.44
2546.95
2593.97
2598.85
2796.24
2787.15
2606.35
2597.96
2574.71
2546.48
2566.07
2546.48
2546.48
2546.48
2546.48
2546.48
2546.49
2569.99
2574
2560.04
2817.64
2569.21
2579.41
2574.99
2553.56
2546.48
2546.48
2546.48
2546.48
2546.48
2546.48
2546.48
2558.29
2556.78
2557.23
2611.54
2611.34
2560.04
2611.55
2561.47
2546.48
2546.48
2546.48
2546.48
2546.59
2546.59
2546.59
2546.59
2546.59
2546.59
2546.48
2546.48
2546.48
2546.48
2546.48
2595.03
2595.03
2595.03
2546.48
2546.48
2546.48
2546.48
2546.48
2546.48
2546.48
2546.75
2546.75
2546.74
2546.74
2546.74
2546.75
2546.75
2546.48
2546.48
2546.48
2546.48
2546.48
2568.2
2568.2
2568.2
2568.2
2568.2
2546.48
2546.56
2546.56
2546.56
2546.56
2546.56
2546.56
2546.48
2546.48
5103.42
5110.75
5128.35
5132.77
5229.22
6271.18
5338.5
6382.71
5697.56
7527.36
7577.13
6653.14
6981
6938.91
6574.85
7360.51
5537.03
6302.92
5387.5
5769.79
5218.1
5163.29
5155.42
5116.06
5129.76
5109.59
2574.41
2613.5
2698.26
2694.94
2862.64
2637.45
2900.02
3416.29
3138.18
2810.95
3811.36
3101.56
3669.53
4503.13
3712.07
3684.34
4590.77
4485.54
4421.61
3837.92
3697.23
3956.03
3150.02
3753.67
3109.16
2794.8
2791.23
3096.58
2926.37
2726.74
2716.5
2661.37
2686.73
2598.46
2546.48
2557.3
2548.32
2628.93
2573.59
2620.89
2659.34
2708.65
2645.75
2806.93
2706.91
2901.72
2729.94
3027.7
3163.16
2989.9
3198.9
3727.69
3125.26
3755.71
2975.58
3235.94
3238.15
2959.42
3046.34
2758.69
2956.95
2734.79
2706.76
2670.68
2709.51
2733.03
2665.25
2685.65
2602.03
2583.48
2560.4
2546.48
2558.18
2645.75
2980.4
2822.95
2930.69
2877.71
2848.55
4198.97
4185.57
4193.85
2963.66
2878.89
2834.06
2969.42
2924.26
2621.06
2628.49
2546.48
2546.48
2546.48
2546.71
2546.48
2797.07
2598.63
2792.32
2798.96
4110.15
4120.48
4176.04
2786.45
4129.36
2832.82
2810.22
2592.82
2580.21
2546.49
2546.48
2546.48
2546.48
2546.48
2546.48
2546.48
2546.48
2566.31
2894.53
2813.55
2888.63
2815.69
2895.14
2890.24
2815.14
2807.56
2892.62
2835.64
2899.68
2899.23
2818.38
2574.8
2546.48
2546.48
2546.48
2546.48
2546.48
2546.48
2546.48
2560.67
2546.48
2556.98
2611.53
3093.78
2611.35
3094.8
3108.64
3107.81
3096.56
2611.35
2556.67
2611.52
2563.91
2546.48
2546.48
2546.48
2546.48
2546.48
2546.48
2546.59
2841.06
2841.09
2841.06
2841.09
2841.06
2546.59
2546.48
2546.48
2546.48
2546.48
2595.03
2595.03
2595.04
2595.04
2595.03
2595.03
2546.48
2546.48
2546.48
2546.48
2546.74
2683.15
2683.15
2970.36
2970.35
2683.15
2683.16
2970.37
2683.15
2970.35
2683.14
2970.36
2683.15
2546.74
2546.48
2546.48
2546.48
2568.2
2568.2
2568.2
2568.2
2546.48
2546.48
2546.56
3197.64
3197.64
3197.64
2546.56
2546.48
2546.48
2546.48
2895.59
2895.59
2895.59
2895.59
2895.59
2546.48
2546.48
2705.27
2705.28
2705.27
2705.27
2705.27
2705.27
2705.27
5105.84
5151.94
5116.39
5136.46
5178.88
5256.29
6000.55
7122.57
6764.1
7333.73
7555.11
5735.76
8129.73
8409.22
7570.24
8320.32
8327.88
8891.29
7960.22
7922.08
8976.61
9002.71
7467.83
6844.12
6219.02
7092.96
5239.17
5137.87
5139.57
5107.57
2580.52
2606.5
2706.07
2637.07
2798.74
2752.19
2699.57
2852.37
3400.57
3100.89
3364.22
3847.84
4629.36
3252.94
3810.41
3978.7
5174.31
5076.37
4375.23
4506.07
3676.6
4866.34
5205.7
5319.57
5549.79
4718.64
5579.07
4648.7
5166.9
4618.54
3743.75
5643.91
4770.89
3859.62
3989.65
3850.44
3183.02
3155.59
2851.5
3828.49
2867.86
3320.38
2829.13
2743.84
2646.39
2625.96
2693.92
2600.96
2691.89
2706.47
2733.27
2713.48
3005.23
2838.31
2942.18
3648.27
3201.12
4979.65
3669.17
3735.02
3218.16
4946.66
4999.8
5022.34
4752.01
5987.24
4708.92
4908.7
4930.5
4750.68
5026.51
5965.85
3622.99
3712.7
3250.82
5029.24
3654.13
3657.87
3194.19
2913.38
2806.03
2986.87
2805.93
2679.93
2754.95
2635.44
2672.22
2587.73
2639.14
2606.16
2625.95
2859.63
2908.93
4206.72
2855.46
4433.18
4467.05
4451.63
4171.26
4201.7
4511.9
4487.58
4508.79
4214.32
4397.61
4463.09
4168.83
4225.22
2859.64
4452.86
2830.06
2630.8
2626.7
2593.97
2546.48
2546.48
2564.32
2599.34
2790.71
4175.09
4097.14
4173.54
4105.98
4116.47
4174.06
4175.67
4176.42
4105
4172.64
4177.11
4106.11
4100.32
2801.09
4179.8
2780.59
2602.46
2550.42
2546.48
2546.48
2546.48
2546.48
2567.43
2890.52
2811.9
2812.65
4415.08
2892.99
4430.12
4417.33
4912.06
4922.74
4418.73
4430.66
4913.09
4922.52
4431.33
4922.08
4913.22
4921.65
4426.66
4416.27
4418.1
2889.29
2813.89
2890.8
2807.57
2569.93
2546.48
2546.48
2546.48
2546.48
2557.37
2611.46
3099.27
2611.45
3561.39
3107.48
3557.93
5808.2
5801.35
5801.34
3557.35
5808.09
5801.07
3109.86
3557.88
3557.32
3093.55
2611.41
2557.78
2611.43
2546.48
2546.48
2546.48
2546.59
2841.08
2841.07
2841.08
3580.34
4541.28
4525.55
4525.87
3581.39
4525.58
3581.38
4541.26
3581.26
2841.08
2841.06
2841.07
2546.59
2546.48
2546.48
2546.48
2595.03
3508.85
3508.89
3508.87
3508.87
3508.86
3508.85
3508.86
3508.87
3508.85
2595.03
2546.48
2546.48
2546.48
2546.48
2546.75
2683.15
2970.36
2683.15
2970.35
4246.54
4246.51
4246.58
4246.54
4246.54
2970.37
2970.36
2683.15
2683.15
2546.75
2546.48
2546.48
2546.48
2568.2
3637.2
3637.22
3637.24
3637.19
3637.19
3637.2
3637.22
2568.2
2546.48
2546.48
2546.56
3197.62
3197.62
3197.63
3197.62
3197.63
3197.62
2546.56
2546.48
2546.48
2895.6
2895.59
2895.59
2895.59
2546.48
2705.28
2705.26
5018.01
2705.27
2705.27
5097.95
5123.98
5153.55
5251.87
5230.89
6638.49
5351.72
5648.84
7315.87
7461.35
8425.26
8609.1
9539.1
7829.09
10458.9
10218.4
8569.4
9979.25
10764
12256.8
9964.7
8795.96
10830.8
8009.06
7354.65
8381.7
7695.49
6607
5388.97
5235.61
5168.44
5140.88
5123.01
5099.3
2555.82
2665.32
2677.43
2736.84
2813.22
2758.77
2851.8
3221.15
3014.3
3155.79
3718.04
3668.15
6733.55
5220.86
5406.5
4462.23
4568
3721.94
5522.77
4760.96
8342.96
6975.26
7048.52
8905.04
7115.38
10586.2
11027.9
10750.8
10789.7
7237.83
14121.3
14150.5
6953.27
6968.3
11063.2
11089.4
6908.85
6909.14
6916.87
11192.5
10427
14248.3
10924.9
10770.9
10519.8
7032.61
8751.23
5571.29
6854.62
10806.8
6894.93
3737.45
5275.01
4417.69
3740.67
4339.81
4791.61
3335.83
3817.64
3318.51
3053.99
3679.74
3151.53
2793.38
2741.75
2699.94
2731.1
2700.12
2653.89
2691.86
2589.47
2555.61
2546.48
2546.48
2582.34
2590.75
2643.45
2641.87
2696.21
2753.42
2752.54
2838.41
3190.64
4972.18
4987.76
3165.78
3641.52
3748.96
4745.59
5880.31
5874.65
5966.6
7657.24
7496.82
11414.3
7611.89
7567.03
7585.54
7526.73
5817.77
5785.62
7449.2
5800.25
11121.7
7632.98
7632.01
7484.53
11233.3
4951.15
4938.8
5855.23
4700.76
5906.99
5896.16
3690.24
3716.49
3161.06
3191.55
2657.1
2771.02
2655.39
2669.62
2620.98
2576.23
2546.48
2546.48
2611.57
2678.84
2615.63
2831.64
2933.09
4193.8
4463.87
4490.59
4191.89
4199.43
4200.92
4501.63
4478.77
2791.22
2955.19
2640.96
2582.41
2574.1
2546.48
2546.48
2546.53
2564.44
2623.1
2592.4
2805.95
4116.47
4107.35
4172.65
4178.81
4110.49
4112.88
4175.95
4178.52
2778.02
2613.37
2598.8
2550.29
2546.48
2546.48
2546.48
2546.48
2546.48
2546.48
2546.5
2598.06
2564.89
2812.85
2890.46
4418.3
4429.59
4923.89
4912.57
4912.53
4914.15
4913.74
4922.29
4425.51
4419.36
2799.22
2881.78
2578.33
2578.13
2546.48
2546.48
2546.48
2546.48
2546.48
2546.48
2546.48
2556.94
3097.83
2611.43
3561.47
3578.3
3103.59
5808.05
5807.81
7432.59
5801
10954.5
10954.5
10954.3
10954.5
7432.07
7432.95
7432.18
7432.9
10954
10954.3
10953.8
7431.98
7432.47
7432.61
7432.06
5805.9
5806.93
5800.37
3559.59
3105.28
2611.38
3092.63
2562.57
2546.48
2546.48
2546.48
2546.48
2546.48
2546.48
2546.59
2546.59
2841.07
6606.67
4540.76
4540.09
4526.65
6606.32
6608.61
6606.43
6608.69
6606.24
6608.51
6608.64
6606.23
4539.27
4540.76
4525.89
3578.39
2841.06
2546.59
2546.59
2546.48
2546.48
2546.48
2546.48
2546.48
2595.04
3508.87
3508.85
5118.6
5118.58
5118.58
5118.59
5118.62
5118.6
5118.6
5118.62
5118.58
5118.6
5118.58
3508.87
3508.86
2595.04
2546.48
2546.48
2546.48
2546.48
2546.48
2546.75
2546.74
2970.36
2683.15
2970.37
4246.49
4246.54
4246.54
10088.9
10088.9
10088.9
4246.54
4246.54
4246.56
2970.35
2970.36
2683.14
2546.74
2546.75
2546.48
2546.48
2546.48
2546.48
2568.2
3637.22
3637.2
3637.17
8376.22
8376.19
8376.2
8376.19
8376.22
8376.19
8376.19
3637.17
3637.2
3637.22
2568.2
2546.48
2546.48
2546.56
2546.56
3197.63
3197.62
7164.64
6271.62
7164.75
7164.67
7164.71
7164.75
6271.62
6271.62
6271.66
6271.65
7164.75
7164.71
7164.64
7164.67
6271.65
6271.62
6271.62
6271.62
3197.63
3197.62
2546.56
2546.56
2546.48
2546.48
2895.58
2895.59
5583.38
5583.38
5583.42
5583.35
5583.38
5583.4
5583.36
5583.37
5583.35
5583.37
5583.38
2895.59
2895.59
2546.48
2705.27
5017.98
5017.98
5017.93
5017.99
5017.98
5017.98
5017.99
5017.98
5017.93
5017.98
2705.27
5110
5158.84
5148.63
5160.11
5796.79
6083.43
6194.55
6670.17
9041.63
7571.99
7908.66
5606.54
9001.41
5775.18
5701.06
7944.15
7609.43
8588.6
7035.46
6699.34
5859.09
6207.32
5312.11
5194.08
5881.19
5165.95
5136.47
5113.87
5095.22
2546.88
2605.94
2665.69
2625
2690.53
2687.85
2852.64
2905.69
2869.88
3355.82
2844.73
4146.77
4076.08
3744.23
3239.35
3952.48
4690.67
5547.75
11388.1
7217.62
10570.2
7022.68
10178.8
10212
10394.8
8040.45
19345.9
19311.9
19361.8
19405.2
19403.7
14197.1
19392.4
19361.4
11348.6
19413.5
13694
14077.7
13747.7
13980.7
13445.4
14016.7
3430.26
19645
19431.3
19443.8
19128.7
19129.2
13857.8
13603.4
13963.3
13344.5
19270
11299.7
13502.9
13928.8
13918
13749.1
19170.1
11265
10713.5
10848
6839.63
7012
8617.11
10764.5
11330.9
8536.38
5435.79
4498.76
5311.96
4758.73
5495.23
3001.67
3493.07
4393.1
2849.39
2845.59
2658.49
2697.62
2673.68
2631.87
2599.95
2546.48
2570.77
2561.01
2706.85
2668.96
2587.81
2814.04
2664.83
2700.78
2801.69
3051.25
3201.83
3183.32
4777.11
5899.64
5924.22
3799.33
4786.19
4977.7
5845.38
7582.65
7565
11189.6
11156.9
11210.9
9415.99
11236.8
19368.5
19258.5
11282.1
11306.2
5925.24
7516.22
7545.59
7566.77
7609.11
5843.92
4982.25
4784.46
3659.01
4691.21
5904.15
4909.58
4938.55
3718.55
2970.3
3149.67
2670.43
2741.67
2922.8
2750.23
2623.36
2779.99
2701.39
2562.6
2568.04
2546.48
2820.77
2720.81
2685.17
2838.96
2957.09
4197.93
4204.52
4951.77
4492.9
4428.78
4446.23
4415.87
4215.79
4190.9
2837.18
3153.73
2880.2
2635.06
2546.48
2546.48
2546.48
2546.48
2563.08
2626.86
2799.03
2812.41
4110.71
4176.12
4116.97
4181.52
4102.71
4182.57
4173.78
4110.03
2790.4
2812.69
2596.41
2559.07
2546.48
2546.48
2546.48
2546.48
2546.48
2546.48
2546.48
2546.48
2580.95
2806.87
2816.75
2887.18
2898.82
4429.13
4420.43
4924.89
4913.94
4423.54
4418.92
4913.94
4923.07
2812.08
2819.22
2891.42
2890.74
2563.61
2546.48
2546.48
2546.48
2546.48
2546.48
2546.48
2546.48
2571.38
2559.19
2611.64
2611.42
3107.89
3095.44
5802.87
5807.83
5802.05
3559.98
7433.33
7433.54
7433.84
7432.96
10954.6
10955
10954.8
10954.9
10954.5
10953.4
10953.6
10953.3
5801.02
7432.21
7432.5
7432
7432.65
10953.2
10953.3
5801.21
5805.07
3575.77
3562.74
3097.43
3103.59
2560.2
2556.56
2611.37
2611.37
2546.48
2546.48
2546.48
2546.48
2546.48
2546.48
2546.59
2841.08
2841.06
3579.97
4526.57
4540.47
4526.86
6606.74
6608.37
6606.78
6608.35
19102.4
19102.2
19102.8
19102.7
19102.9
19101.9
13960.6
19101.7
19101.5
19102.8
19101.6
19101.4
19101.7
19101.5
19101.5
19101.6
19101.6
19101.6
6606.41
6608.04
6606.29
6607.57
4526.69
4537.71
4527.67
2841.06
2841.07
2546.59
2546.48
2546.48
2546.48
2546.48
2546.48
2595.03
2595.03
3508.87
3508.86
5118.59
5118.62
5118.6
12882.2
12882.3
12882.2
12882.2
4186.69
12882.3
12882.3
12882.3
12882.2
12882.3
12882.2
12882
12882.2
12882.1
12882.1
12882
12882
12882
5118.59
5118.62
5118.6
3508.87
3508.85
2595.03
2595.03
2546.48
2546.48
2546.48
2546.48
2546.48
2546.75
2970.35
2970.35
2683.15
2683.15
4246.58
4246.54
4246.51
10088.9
10088.9
2547.75
10088.9
10088.9
10088.9
10088.8
10088.9
10088.9
10088.9
10088.9
10088.9
10088.8
10088.9
10088.9
4246.54
4246.54
4246.51
2970.35
2970.37
2683.16
2683.15
2546.75
2546.48
2546.48
2546.48
2546.48
2568.2
2568.2
3637.24
3637.19
8376.19
8376.19
8376.22
8376.2
8376.23
2546.48
8376.22
8376.23
8376.2
8376.19
8376.19
3637.24
3637.19
2568.2
2568.2
2546.48
2546.48
2546.56
3197.64
3197.64
7164.71
7164.67
7164.75
6271.62
6271.62
6271.66
6271.65
7164.75
2546.48
7164.67
7164.71
7164.75
7164.75
6271.66
6271.62
6271.65
6271.62
3197.64
3197.64
2546.56
2546.48
2546.48
2895.59
2895.59
5583.39
5583.34
5583.38
2546.48
5583.38
5583.39
5583.34
2895.59
2895.59
2546.48
2705.27
2705.27
5018.01
5017.99
5017.98
2546.48
5018.01
5017.98
5017.99
2705.27
2705.27
5092.96
5101.79
5118.71
5120.05
5191.94
5752.55
5227.62
5292.9
5453.32
6867.48
6615.87
7323.12
8479.04
8557.56
9004.49
12588.6
11357.4
8420.31
10792.2
7596.49
5476.66
5620.06
9250.05
7992.21
8100.19
8322.67
8645.41
7521.18
6697.41
5995.13
5741.95
5149.76
5202.22
5116.66
5118.12
5102.23
2629.23
2638.41
2732.18
2721.73
2832.64
2856.54
3404
3009.97
4593.14
3946.62
3735.4
4661.59
4658.11
4379.06
5337.39
5415.89
5785.9
11331.8
6947.75
13634.5
10894.2
10711.5
10860.7
7000.32
7049.57
10858.5
13550.3
7843.53
19683.3
19628.3
19846.6
11255.2
19916
19921.7
19667
13620.4
13872.3
13341.2
13715.6
19841.4
5306.41
19758.4
13363.2
13642
19781.2
19661.6
11547.1
19732.6
19546.1
19600.1
13441.5
13775.7
19581.4
19835.8
13678.6
6893.12
6931.17
10793
5723.25
10648.3
10723
10665.1
7189.81
7017.96
11283.2
10919.6
7329.8
6121.13
5145.99
4578.81
5224.72
4799.66
3716.21
3942.91
3719.04
3133.39
3539.58
2920.3
2870.19
3415.24
2859.26
2704.17
2763.36
2670.26
2629.14
2695.21
2677.6
2657.98
2869.89
2948.81
3755.81
3218.09
4979.44
4996.27
3659.35
5934.02
4799.86
7571.81
7522.83
5816.22
7592.13
11405
11365.1
7584.54
7464.12
11017.1
7493.99
11305.8
11005.4
11226.1
11034.6
7654.15
7584.23
7492.95
5811
5920.75
11324
4703.81
3681.72
5913.76
5003.34
4982.41
3164.17
3013.08
2918.17
2936.95
2862.08
2696.47
2664.93
2674.42
2589.96
2699.3
2607.41
2939.39
2613.06
2850.54
3014.13
4216.68
4489.15
4484.43
4221.38
2848.2
2624.08
2585.72
2597.53
2820.7
4116.53
4185.92
4110.25
4184.86
2777.28
2607.5
2556.7
2824.91
2905.2
4429.67
4926.02
4913.71
4425.08
4913.84
4923.21
2808.13
2887.27
2577.9
2556.87
2611.5
3112.82
5804.21
5808.14
10955.2
7433.71
7434.18
7434.13
10955.4
10955.4
10955.5
10955.3
10953.4
10953.6
10953.8
10953.3
10953.4
7432.58
5801.69
7432.35
7432.67
3573.56
5805.06
3100.8
2611.34
2561.08
2546.59
2841.08
4525.97
4541.56
3583.04
6608.95
6606.59
6608.66
19102.4
19102.7
19102.5
19102.6
19102.3
19102.3
19102.2
19102.4
19102.1
19102
19102
19102
19102
19101.8
19101.9
6606.53
6607.36
6607.33
4536.61
4528.52
2841.06
2546.59
2595.03
3508.86
5118.62
5118.6
12882.2
12882.3
12882.2
12882.2
12882.2
12882.3
12882.3
12882.3
12882.1
12882
12882
12882
12882
12882.1
12882
5118.6
5118.62
3508.86
2595.03
2546.74
2970.37
2683.15
4246.54
4246.58
10088.9
10088.9
10088.9
10088.9
10088.9
10088.8
10088.9
10088.9
10088.9
10088.9
10088.9
10088.9
10088.9
10088.8
10088.9
4246.54
4246.54
2683.15
2970.35
2546.74
2568.2
3637.19
3637.2
8376.19
8376.19
8376.22
8376.23
8376.22
8376.22
8376.22
8376.23
8376.19
8376.19
3637.19
3637.2
2568.2
2546.56
3197.64
7164.71
7164.75
7164.67
7164.64
6271.62
6271.65
6271.62
7164.64
7164.75
7164.71
7164.67
6271.65
6271.62
6271.62
3197.64
2546.56
2895.59
5583.38
5583.34
5583.38
5583.34
5583.38
5583.38
2895.59
2705.27
5017.99
5017.98
5017.99
5017.98
2705.27
5098.09
5129.15
5141.87
5164.53
6032.11
5166.39
5383.8
7005.85
8201.2
9077.66
9806.06
10210.9
10793.5
8583.18
9219.18
10083.7
7583.22
9625.48
9135.12
8090.87
8613.82
9432.54
7315.85
7685.03
7197.4
7414.6
5264.99
5165.4
5241.02
5177.95
5142.77
5130.82
5100.17
2559.28
2586.25
2634.23
2636.17
2680.86
2700.28
2679.28
2810.21
3031.95
3161.86
3045.27
3261.34
3580.57
3576.45
3803.89
4434.03
3760.94
5611.47
3825.34
7031.36
5474.73
5612.3
6904.66
6915.74
4675.1
13269
10869.7
10870.4
10789.2
7059.44
6911.77
6886.26
11804.8
13258.2
11354.3
6001.44
7627.93
13185.5
11005.1
10781.2
10958
10286.3
6940.58
6970.32
8557.72
4704.22
6935.4
5546.21
7108.76
8742.62
4062.58
4702.12
4454.52
3756.1
4422.37
3020.09
3670.48
3214.77
3795.3
3124.08
2937.74
2798.77
2839.09
2710.26
2711.53
2625.49
2644.68
2582.78
2564.16
2546.48
2546.52
2554.84
2676.92
2633.39
2582.51
2641.38
2795.44
3135.28
3676.41
4966.05
3729.72
3222.08
5978.18
5917.27
4943.93
4995.61
5960.54
4747.95
5830.28
7468.69
11154.4
7608.43
7590.49
7613.91
5825.68
7589.98
7613.99
7492.06
5875.97
5890
5978.92
4706.81
5007.06
4979.99
4873.08
3692.06
3640.18
3164.4
3186.52
2745.22
2690.75
2588.13
2640.68
2668.66
2559.11
2546.68
2546.48
2600.24
2628.53
2730.49
2852.3
2955.1
4208.87
4194.78
4476.97
4500.4
4209.79
4189.83
4450.68