# vtk DataFile Version 3.0
Happy Go Lucky
ASCII
DATASET POLYDATA
POINTS 3856 float
0 -0.58898 -1
-0.0123141 -1.01711 -0.908269
-0.182061 -0.964952 -0.914409
0.00365389 -0.935137 -0.934786
0.181726 -0.966014 -0.913467
-0.37533 -0.784073 -0.906127
-0.191341 -0.784073 -0.961939
0 -0.784073 -0.980785
0.191342 -0.784073 -0.96194
0.37533 -0.784073 -0.906127
-0.382683 -0.58898 -0.923879
-0.19509 -0.58898 -0.980784
0 -0.58898 -0.9
0.19509 -0.58898 -0.980785
0.382683 -0.58898 -0.923879
-0.37533 -0.393889 -0.906127
-0.191341 -0.393889 -0.961939
0 -0.393889 -0.980785
0.191342 -0.393889 -0.96194
0.37533 -0.393889 -0.906127
-0.18024 -0.206296 -0.906127
0 -0.206296 -0.923879
0.18024 -0.206296 -0.906127
-0.320095 -1.01594 -0.821216
-0.166689 -1.01691 -0.843715
0.0237374 -1.01439 -0.81958
0.167368 -1.01621 -0.840454
0.318778 -1.01592 -0.822975
-0.362405 -0.95117 -0.865512
-0.158238 -0.9161 -0.833996
0.00500362 -0.926153 -0.842771
0.157457 -0.918943 -0.8323
0.362742 -0.950742 -0.865326
-0.544895 -0.784073 -0.815493
-0.337797 -0.764564 -0.815514
-0.172207 -0.764564 -0.865745
0 -0.764564 -0.882707
0.172208 -0.764564 -0.865746
0.337797 -0.764564 -0.815515
0.544895 -0.784073 -0.815493
-0.555569 -0.58898 -0.831469
-0.344414 -0.58898 -0.831491
-0.175581 -0.58898 -0.882706
0 -0.58898 -0.8
0.175581 -0.58898 -0.882707
0.344415 -0.58898 -0.831492
0.55557 -0.58898 -0.831469
-0.337797 -0.413398 -0.815514
-0.172207 -0.413398 -0.865745
0 -0.413398 -0.882707
0.172208 -0.413398 -0.865746
0.337797 -0.413398 -0.815515
-0.544895 -0.393889 -0.815493
0.544895 -0.393889 -0.815493
-0.353553 -0.206296 -0.853553
-0.162216 -0.244565 -0.815514
0 -0.244565 -0.831491
0.162216 -0.244565 -0.815515
0.353553 -0.206296 -0.853553
-0.162211 -0.0334089 -0.815493
0 -0.0334089 -0.83147
0.162212 -0.0334089 -0.815493
-0.489824 -1.01618 -0.707401
-0.339867 -1.01481 -0.728448
-0.191794 -1.021 -0.716516
-0.0957119 -1.01563 -0.779447
-0.00823174 -1.01896 -0.730328
0.105041 -1.01498 -0.767763
0.186704 -1.01908 -0.70862
0.34435 -1.01472 -0.731256
0.490984 -1.01605 -0.707424
-0.516743 -0.964702 -0.776
-0.46067 -0.927628 -0.698147
-0.320599 -0.931658 -0.770102
-0.259036 -0.963309 -0.730547
-0.174873 -0.960777 -0.773925
-0.0348176 -0.949522 -0.776844
0.0507447 -0.950113 -0.728225
0.180369 -0.959031 -0.77
0.258172 -0.967114 -0.736909
0.321441 -0.930997 -0.770406
0.460837 -0.928246 -0.697211
0.516821 -0.964478 -0.776269
-0.144149 -0.880037 -0.733379
0.00218577 -0.885035 -0.740323
0.145515 -0.885816 -0.729577
-0.490405 -0.764564 -0.733944
-0.300264 -0.745055 -0.724902
-0.153073 -0.745055 -0.769551
0 -0.745055 -0.784628
0.153073 -0.745055 -0.769552
0.300264 -0.745055 -0.724902
0.490406 -0.764564 -0.733944
-0.707106 -0.58898 -0.707106
-0.500012 -0.58898 -0.748322
-0.306146 -0.58898 -0.739103
-0.156072 -0.58898 -0.784627
0 -0.58898 -0.7
0.156072 -0.58898 -0.784628
0.306147 -0.58898 -0.739104
0.500013 -0.58898 -0.748323
0.707107 -0.58898 -0.707107
-0.490405 -0.413398 -0.733944
-0.300264 -0.432907 -0.724902
-0.153073 -0.432907 -0.769551
0 -0.432907 -0.784628
0.153073 -0.432907 -0.769552
0.300264 -0.432907 -0.724902
0.490406 -0.413398 -0.733944
-0.51328 -0.206296 -0.768177
-0.318198 -0.244565 -0.768198
-0.144192 -0.282833 -0.724902
0 -0.282833 -0.739103
0.144192 -0.282833 -0.724902
0.318198 -0.244565 -0.768198
0.51328 -0.206296 -0.768178
-0.318189 -0.0334089 -0.768177
-0.14599 -0.0889648 -0.733943
0 -0.0889648 -0.748323
0.145991 -0.0889648 -0.733944
0.31819 -0.0334089 -0.768178
0 0.118125 -0.707107
-0.611625 -1.01625 -0.606314
-0.406966 -1.01741 -0.660517
-0.271636 -1.0196 -0.663723
-0.17714 -1.01804 -0.62483
-0.0943089 -1.01756 -0.68479
-0.0103943 -1.0201 -0.637526
0.0765135 -1.01899 -0.677458
0.155529 -1.02 -0.620314
0.274027 -1.01889 -0.668275
0.408908 -1.01765 -0.659819
0.609341 -1.01766 -0.618147
-0.607707 -0.906512 -0.595578
-0.659699 -0.96351 -0.660234
-0.474932 -0.966635 -0.629538
-0.34339 -0.956456 -0.655213
-0.270989 -0.935002 -0.633371
-0.111258 -0.948308 -0.62464
-0.192344 -0.931428 -0.616289
-0.148861 -0.947316 -0.693822
-0.0366586 -0.944718 -0.682839
0.0352006 -0.944236 -0.639181
0.106784 -0.947061 -0.605447
0.131024 -0.950996 -0.688108
0.201416 -0.950383 -0.64045
0.279495 -0.93764 -0.630436
0.347905 -0.956 -0.659621
0.479063 -0.966286 -0.627739
0.661782 -0.960445 -0.660873
-0.413073 -0.887609 -0.619717
-0.285935 -0.883759 -0.693305
-0.247084 -0.851014 -0.601168
-0.12572 -0.843768 -0.648791
-0.0234122 -0.879323 -0.60321
0.00777992 -0.838954 -0.663794
0.156016 -0.88289 -0.612894
0.118098 -0.825173 -0.653543
0.284918 -0.883392 -0.6938
0.247414 -0.849343 -0.601899
0.413014 -0.888601 -0.619338
0.597692 -0.896267 -0.6105
-0.693519 -0.784073 -0.69352
-0.624167 -0.764564 -0.624168
-0.435916 -0.745055 -0.652394
-0.262731 -0.725545 -0.634289
-0.133939 -0.725545 -0.673357
0 -0.725545 -0.68655
0.133939 -0.725545 -0.673358
0.262731 -0.725545 -0.634289
0.435916 -0.745055 -0.652394
0.69352 -0.784073 -0.69352
0.624168 -0.764564 -0.624168
-0.636395 -0.58898 -0.636396
-0.444455 -0.58898 -0.665175
-0.267878 -0.58898 -0.646715
-0.136563 -0.58898 -0.686549
4.23161e-16 -0.58898 -0.6
0.136563 -0.58898 -0.68655
0.267878 -0.58898 -0.646716
0.444456 -0.58898 -0.665176
0.636396 -0.58898 -0.636396
-0.624167 -0.413398 -0.624168
-0.435916 -0.432907 -0.652394
-0.262731 -0.452415 -0.634289
-0.133939 -0.452415 -0.673357
0 -0.452415 -0.68655
0.133939 -0.452415 -0.673358
0.262731 -0.452415 -0.634289
0.435916 -0.432907 -0.652394
0.624168 -0.413398 -0.624168
-0.693519 -0.393889 -0.69352
-0.247487 -0.321102 -0.597487
-0.126168 -0.321102 -0.634289
0 -0.321102 -0.646715
0.126168 -0.321102 -0.634289
0.247487 -0.321102 -0.597487
0.69352 -0.393889 -0.69352
-0.653281 -0.206296 -0.653281
-0.410624 -0.282833 -0.614542
-0.461952 -0.244565 -0.69136
-0.282843 -0.282833 -0.682842
0.282843 -0.282833 -0.682843
0.410624 -0.282833 -0.614542
0.461952 -0.244565 -0.69136
0.653281 -0.206296 -0.653281
-0.254551 -0.144522 -0.614542
-0.129769 -0.144522 -0.652394
0 -0.144522 -0.665176
0.129769 -0.144522 -0.652394
0.254552 -0.144522 -0.614542
-0.415745 -0.0889648 -0.622207
-0.461939 -0.0334089 -0.691341
-0.28637 -0.0889648 -0.69136
0.286371 -0.0889648 -0.69136
0.415746 -0.0889648 -0.622207
0.46194 -0.0334089 -0.691342
-0.124155 0.0474155 -0.624168
0 0.0474155 -0.636396
0.124155 0.0474155 -0.624168
-0.270598 0.118125 -0.653281
-0.13795 0.118125 -0.69352
0.13795 0.118125 -0.69352
0.270598 0.118125 -0.653281
-0.554262 -1.01692 -0.530049
-0.441822 -1.02108 -0.570039
-0.380081 -1.01847 -0.49939
-0.343524 -1.02014 -0.589431
-0.253073 -1.00262 -0.576032
-0.0952045 -1.03734 -0.501402
-0.179702 -1.01979 -0.525387
-0.0142902 -1.0185 -0.544133
-0.0927584 -1.0237 -0.591271
0.0621886 -1.03826 -0.498625
0.0683639 -1.01926 -0.584955
0.171599 -1.02258 -0.528718
0.283381 -1.02132 -0.499291
0.244538 -1.01177 -0.581895
0.339527 -1.01945 -0.592767
0.376705 -1.01868 -0.499985
0.438844 -1.01962 -0.569266
0.532493 -1.01684 -0.560955
-0.775798 -0.964971 -0.516754
-0.543745 -0.955164 -0.592502
-0.548892 -0.930502 -0.497286
-0.476166 -0.948138 -0.534227
-0.32015 -0.954529 -0.533581
-0.393019 -0.948755 -0.576333
-0.383094 -0.91177 -0.503877
-0.253034 -0.91572 -0.551757
-0.173789 -0.933436 -0.532915
-0.103202 -0.968218 -0.52822
-0.0395439 -0.952749 -0.589404
-0.0566421 -0.904349 -0.522338
0.100214 -0.973508 -0.514163
0.0321302 -0.932341 -0.552463
0.172401 -0.944159 -0.555472
0.248656 -0.919353 -0.558806
0.372719 -0.907654 -0.501267
0.316082 -0.954959 -0.538848
0.390599 -0.947701 -0.573557
0.476104 -0.941704 -0.537694
0.598205 -0.954459 -0.556128
0.776031 -0.964664 -0.516927
-0.527663 -0.860593 -0.539248
-0.357241 -0.844821 -0.545164
-0.214863 -0.865552 -0.497028
-0.127467 -0.849778 -0.5001
-0.124824 -0.883621 -0.577385
0.00397503 -0.853411 -0.51765
0.0840885 -0.823078 -0.505075
0.108572 -0.89464 -0.536918
0.197069 -0.869893 -0.513666
0.357645 -0.843763 -0.546422
0.533583 -0.873047 -0.52759
-0.815493 -0.784073 -0.544895
-0.554815 -0.745055 -0.554816
-0.381426 -0.725545 -0.570845
-0.214335 -0.789588 -0.520369
-0.225257 -0.705571 -0.543807
-0.105642 -0.797487 -0.559597
-0.114811 -0.705966 -0.577178
0.00258292 -0.795918 -0.57319
-4.24582e-06 -0.705881 -0.5885
0.117101 -0.79019 -0.571767
0.114805 -0.70419 -0.577375
0.216324 -0.792589 -0.517149
0.225216 -0.705871 -0.543726
0.381427 -0.725545 -0.570845
0.554816 -0.745055 -0.554816
0.815493 -0.784073 -0.544895
-0.831468 -0.58898 -0.55557
-0.748322 -0.58898 -0.500013
-0.565685 -0.58898 -0.565685
-0.388898 -0.58898 -0.582028
-0.333342 -0.58898 -0.498881
-0.22961 -0.58898 -0.554327
-0.117054 -0.58898 -0.588471
-1.3102e-07 -0.588587 -0.500064
0.117054 -0.58898 -0.588471
0.22961 -0.58898 -0.554328
0.388899 -0.58898 -0.582029
0.333342 -0.58898 -0.498882
0.565685 -0.58898 -0.565685
0.748323 -0.58898 -0.500013
0.83147 -0.58898 -0.55557
-0.554815 -0.432907 -0.554816
-0.381426 -0.452415 -0.570845
-0.225198 -0.471924 -0.543676
-0.114805 -0.471924 -0.577164
-1.18521e-21 -0.471924 -0.588471
0.114805 -0.471924 -0.577164
0.225198 -0.471924 -0.543676
0.381427 -0.452415 -0.570845
0.554816 -0.432907 -0.554816
-0.815493 -0.393889 -0.544895
-0.359296 -0.321102 -0.537724
-0.212132 -0.35937 -0.512132
-0.108144 -0.35937 -0.543676
-3.13618e-21 -0.35937 -0.554327
0.108144 -0.35937 -0.543676
0.212132 -0.35937 -0.512132
0.359296 -0.321102 -0.537724
0.815493 -0.393889 -0.544895
-0.768177 -0.206296 -0.51328
-0.522625 -0.282833 -0.522625
-0.587953 -0.244565 -0.587953
0 -0.255638 -0.498882
0.522625 -0.282833 -0.522625
0.587953 -0.244565 -0.587953
0.768178 -0.206296 -0.51328
-0.369551 -0.144522 -0.553073
-0.222732 -0.20008 -0.537724
-0.113548 -0.20008 -0.570845
0 -0.20008 -0.582029
0.113548 -0.20008 -0.570845
0.222733 -0.20008 -0.537724
0.369552 -0.144522 -0.553073
-0.529144 -0.0889648 -0.529144
-0.587937 -0.0334089 -0.587938
-0.216478 -0.0232942 -0.522625
-0.11036 -0.0232942 -0.554816
0 -0.0232942 -0.565685
0.11036 -0.0232942 -0.554816
0.216478 -0.0232942 -0.522625
0.529144 -0.0889648 -0.529144
0.587938 -0.0334089 -0.587938
[...]
POINT_DATA 3856
SCALARS scalar float
LOOKUP_TABLE default
2546.48
5114.24
2553.14
2558.26
2552.01
2546.48
2546.48
2546.48
2546.48
2546.48
2546.48
2546.48
2546.48
2546.48
2546.48
2546.48
2546.48
2546.48
2546.48
2546.48
2546.48
2546.48
2546.48
5109.24
5115.58
5102.36
5110.63
5108.72
2553.09
2610.8
2588.12
2604.76
2552.85
2546.48
2546.48
2546.48
2546.48
2546.48
2546.48
2546.48
2546.48
2546.48
2546.48
2546.48
2546.48
2546.48
2546.48
2546.48
2546.48
2546.48
2546.48
2546.48
2546.48
2546.48
2546.48
2546.48
2546.48
2546.48
2546.48
2546.48
2546.48
2546.48
5110.12
5105.67
5151.48
5107.93
5129.83
5104.6
5132.51
5104.66
5109.8
2551.63
2587.21
2587.98
2604.49
2650.82
2626
2595.56
2643.42
2613.73
2585.58
2581.99
2551.82
2600.93
2607.86
2599.88
2546.48
2546.48
2546.48
2546.48
2546.48
2546.48
2546.48
2546.48
2546.48
2546.48
2546.48
2546.48
2546.48
2546.48
2546.48
2546.48
2546.48
2546.48
2546.48
2546.48
2546.48
2546.48
2546.48
2546.48
2546.48
2546.48
2546.48
2546.48
2546.48
2546.48
2546.48
2546.48
2546.48
2546.48
2546.48
2546.48
5110.79
5120.67
5135.14
5132.52
5118.89
5143.23
5131.21
5143.12
5132.49
5122.5
5119.58
2584.82
2552.37
2647.89
2611.16
2699.38
2714.75
2644.8
2682.8
2579.24
2641.53
2708.61
2645.56
2642.21
2722.94
2628.19
2592.15
2553.94
2602.52
2588.06
2578.53
2578.61
2669.36
2597.82
2655.45
2593.6
2569.18
2574.55
2599.55
2590.28
2546.48
2546.48
2546.48
2546.48
2546.48
2546.48
2546.48
2546.48
2546.48
2546.48
2546.48
2546.48
2546.48
2546.48
2546.48
2546.48
2546.48
2546.48
2546.48
2546.48
2546.48
2546.48
2546.48
2546.48
2546.48
2546.48
2546.48
2546.48
2546.48
2546.48
2546.48
2546.48
2546.48
2546.48
2546.48
2546.48
2546.48
2546.48
2546.48
2546.48
2546.48
2546.48
2546.48
2546.48
2546.48
2546.48
2546.48
2546.48
2546.48
2546.48
2546.48
2546.48
2546.48
2546.48
2546.48
2546.48
2546.48
2546.48
2546.48
2546.48
2546.48
2546.48
5116.57
5148.57
5129.79
5135.77
5142.28
5779.09
5152.55
5174.48
5202.06
5733.77
5162.94
5214.64
5174.84
5117.13
5129.28
5132.24
5138.86
5113.9
2551.71
2646.53
2633.84
2591.27
2678.79
2672.22
2689.56
2706.6
2721.24
2808.27
2746.75
2699.11
2767.08
2668.97
2722.86
2750.35
2719.83
2691.83
2663.24
2576.86
2652.26
2552.32
2566.32
2573.27
2672.6
2644.02
2668.57
2682.32
2695.32
2677
2662.02
2588.94
2560.41
2546.48
2546.48
2546.48
2598.64
2554.43
2581.2
2547.58
2592.34
2549.2
2599.48
2559.58
2591.82
2549.48
2546.48
2546.48
2546.48
2546.48
2546.48
2546.48
2546.48
2546.48
2546.48
2546.48
2551.48
2546.48
2546.48
2546.48
2546.48
2546.48
2546.48
2546.48
2546.48
2546.48
2546.48
2546.48
2546.48
2546.48
2546.48
2546.48
2546.48
2546.48
2546.48
2546.48
2546.48
2546.48
2546.48
2546.48
2546.48
2546.48
2546.48
2546.48
2546.48
2546.59
2546.48
2546.48
2546.48
2546.48
2546.48
2546.48
2546.48
2546.48
2546.48
2546.48
2546.48
2546.48
2546.48
2546.48
2546.48
2546.48
2546.48
2546.48
2546.48
2546.48
2546.48
2546.48
2546.48
2546.48
2546.48
2546.56
2546.48
2546.48
2546.48
2546.48
2546.48
2546.48
2546.48
5110.45
5123.3
5130.83
5131.5
5250.91
5169.5
5180.17
5218.11
5967.54
5363.97
5374.16
5986.07
5215.48
5251.66
5120.47
5156.12
5113.29
5112.16
2578.41
2593.08
2664.79
2697.29
2728.4
2841.96
2698.96
2671.48
2939.04
2777.93
2767.03
3284.24
2846.92
2845.7
2912.63
2790.33
3019.18
2821.72
2705.05
2658.12
2746.14
2697.8
2700.54
2652.72
2682.49
2592.72
2628.06
2606.37
2605.73
2698.24
2709.71
2672.03
2578.27
2721.28
2723.85
2733.49
2794.38
2718.35
2766.23
2735.71
2663.1
2564.98
2672.38
2597.85
2593.63
2546.48
2546.48
2548.21
2632.15
2546.48
2622.14
2637.38
2620.38
2635.24
2650.15
2651.03
2622.66
2546.48
2546.48
2627.93
2577.31
2546.48
2546.48
2579.65
2572.73
2569.15
2581.11
2804.28
2583.43
2578.05
2585.94
2570.64
2546.48
2546.48
2546.48
2547.59
2547.22
2548.87
2776.65
2547.79
2549.84
2547.37
2546.48
2546.48
2546.48
2546.48
2546.48
2546.48
2546.48
2546.48
2547.16
2547.17
2547.15
2547.2
2547.16
2547.18
2547.15
2546.48
2546.48
2546.48
2546.48
2546.48
2546.48
2546.48
2555.14
2555.14
2555.14
2611.07
2611.07
2555.14
2611.07
2555.14
2546.48
2546.48
2546.48
2546.48
2546.59
2546.59
2546.59
2546.59
2546.59
2546.59
2546.48
2546.48
2546.48
2546.48
2546.48
2595.03
2595.03
2595.03
2546.48
2546.48
2546.48
2546.48
2546.48
2546.48
2546.48
2546.75
2546.75
2546.74
2546.74
2546.74
2546.75
2546.75
2546.48
2546.48
2546.48
2546.48
2546.48
2568.2
2568.2
2568.2
2568.2
2568.2
2546.48
2546.56
2546.56
2546.56
2546.56
2546.56
2546.56
2546.48
2546.48
5108.97
5107.18
5129.44
5251.21
5156.19
6255.57
6196.19
5451.81
6308
6700.56
6599.93
5328.91
7124.72
6115.83
5756.86
5146.44
5133.01
5129.41
5104.43
5109.46
2553.02
2584.06
2642.81
2679.94
2682.22
2745.55
3081.78
2770.71
2940.78
3354.42
2779.07
3197.63
3823.81
3193.81
3083.75
4456.45
4416.81
3396.4
3638.46
3181.24
3680.01
3999.92
3226.83
3175.86
2884.05
3206.4
2937.59
3288.7
2761.41
2755.45
2731.22
2692.2
2580.58
2596.91
2553.16
2585.64
2678
2580.65
2795.24
2688.94
2777.98
2820.08
2735.83
2934.52
2954.22
3092.32
3648.25
2960.8
3684.17
2953.17
2954.7
2955.38
2946.37
3082.14
2770.91
2728.34
2772.74
2767.21
2691.82
2699.27
2590.62
2591.47
2546.48
2546.48
2546.48
2546.48
2546.48
2677.19
2926.38
2889.01
2918.99
3125.71
3178.3
2909.32
2924.37
3161.45
2890.42
2924.6
2666.35
2546.48
2546.48
2546.48
2546.48
2546.48
2631.9
2815.67
2790.41
2815.73
4179.65
2811.9
2788.51
2811.48
2621.06
2546.48
2546.48
2546.48
2546.48
2546.48
2581.87
2774.43
2786.59
2767.01
2785.6
2789.82
4163.54
2772.7
4092.47
4086.46
2785.82
4086.7
2772.72
2785.46
2784.57
2765.79
2786.7
2774.89
2572.73
2546.48
2546.48
2546.48
2546.48
2546.48
2546.48
2546.48
2546.48
2546.48
2549.1
2867.68
2870.83
2867.26
2872.36
2867.43
2870.24
2868.28
2547.81
2546.48
2546.48
2546.48
2546.48
2546.48
2546.48
2546.48
2555.15
2546.48
2555.14
2611.07
3084.35
2611.07
3080.42
3084.63
3080.48
2611.07
3084.07
2611.07
2555.14
2555.14
2546.48
2546.48
2546.48
2546.48
2546.48
2546.48
2546.59
2841.03
2841.04
2841.03
2841.04
2841.03
2546.59
2546.48
2546.48
2546.48
2546.48
2595.03
2595.03
2595.04
2595.04
2595.03
2595.03
2546.48
2546.48
2546.48
2546.48
2546.74
2683.15
2970.36
2683.15
2970.37
2970.35
2683.16
2683.15
2970.35
2683.15
2970.36
2683.14
2683.15
2546.74
2546.48
2546.48
2546.48
2568.2
2568.2
2568.2
2568.2
2546.48
2546.48
2546.56
3197.64
3197.64
3197.64
2546.56
2546.48
2546.48
2546.48
2895.59
2895.59
2895.59
2895.59
2895.59
2546.48
2546.48
2705.27
2705.28
2705.27
2705.28
2705.27
2705.27
2705.27
5128.64
5165.67
5115.37
5218.72
6157.41
6699.68
7261.04
7100.78
7097.35
7066.23
8029.9
7610.89
8653.76
7905.85
8131.68
7488.01
7606.2
6793.26
5408.51
6054.63
5204.41
5230.39
5135.66
5198.01
5139.78
5142.11
2606.22
2668.37
2736.6
2721.56
2713.15
2697.73
2822.97
3125.56
3368.24
3460.17
3977.55
3220.68
4420.89
4294.14
3728.07
3712.08
3813.92
6337.34
4636.5
5250.33
5340.78
4588.74
5339.27
4036.68
4658.01
4401.38
3550.72
4782.92
3686.9
4402.76
3152.46
3766.2
3250.17
3279
3070.15
3844.77
2801.48
2858.85
2746.08
2709.18
2646.99
2616.12
2571.23
2571.71
2674.93
2710.89
2816.79
2718.99
3625.27
2922.34
3600.89
3683.52
3616.66
4692.55
4707.54
4710.39
4693.23
3693.89
3658.7
4642.19
4651.93
3683.01
3550.23
3640.66
4679.76
3646.79
2926.56
2713.54
2677.07
2670.39
2741.52
2569.02
2595.75
2546.48
2599.73
2551.94
2629.3
2919.49
3157.06
2907.92
4950.77
4975.02
3152.95
4988.49
4946.71
5872.99
5820.79
5892.18
5875.23
5881.73
4949.3
4980.64
3142.36
4949.69
3152.54
2913.45
2627.45
2925
2600.43
2553.67
2546.48
2574.53
2809.41
4441.59
2804.18
4175.52
4177.3
4443.03
4432.57
4168.52
4169.15
4444.45
4428.2
4429.52
4169.36
4445.7
4433.73
4443.06
4168.17
4178.05
2804.27
4174.33
2808.08
2572.03
2546.48
2546.48
2546.48
2548.06
2785.39
2772.62
4092.16
4162.66
2771.4
2787.26
4163.04
4158.9
4092.26
4087.17
4159.21
4159.22
4092.75
4087.61
4163.11
4158.73
2786.15
4092.48
2770.32
4162.32
2786.3
2774.98
2547.55
2546.48
2546.48
2546.48
2546.48
2546.48
2547.16
2867.25
4411.28
2870.99
4408.32
4907.48
4905.51
4411.22
4411.21
4905.61
4907.61
4408.14
4408.21
4905.59
4907.48
4408.46
4411.33
4411.32
4905.41
2870.18
2868.2
2547.16
2546.48
2546.48
2546.48
2546.48
2555.14
2611.07
3084.4
2611.07
3558.28
3553.93
3080.5
3558.27
5792.5
5793.35
3558.3
3553.62
5793.41
3554
5793.43
5792.53
3080.71
3554.19
3558.1
3558.15
2611.07
3084.02
2555.14
2611.07
2546.48
2546.48
2546.48
2546.59
2841.04
2841.03
2841.03
4525.39
4522.49
4525.4
4525.4
4522.54
2841.03
2841.03
2841.04
2546.59
2546.48
2546.48
2546.48
2595.03
3508.85
3508.89
3508.86
3508.87
3508.86
3508.85
3508.85
3508.86
3508.84
2595.03
2546.48
2546.48
2546.48
2546.48
2546.75
2683.15
2970.36
2683.15
2970.35
4246.51
4246.58
4246.54
4246.54
4246.54
2970.37
2683.15
2970.36
2683.15
2546.75
2546.48
2546.48
2546.48
2568.2
3637.2
3637.22
3637.24
3637.19
3637.19
3637.2
3637.22
2568.2
2546.48
2546.48
2546.56
3197.62
3197.63
3197.62
3197.62
3197.63
3197.62
2546.56
2546.48
2546.48
2895.6
2895.59
2895.59
2895.59
2546.48
2705.28
2705.26
5018.01
2705.27
2705.27
5110.9
5104.64
5134.71
5140.97
5176.42
5308.22
5775
7481.45
8353.52
7696.98
8726.06
10463.8
12124.2
10082.2
9351.84
9575.9
7404.68
8581.67
8499.82
10482.6
8852.38
7622.85
7368.33
7591.55
8185.12
7544.12
7356.5
5351.17
5156.6
5130
5106.87
5108.3
2552.39
2605.34
2638.48
2653.07
2712.74
2708.21
2788.76
2772.78
2914.97
2919.92
3206.23
3813.58
3065.64
4210.57
4362.32
3898.35
3775.15
8545.33
4753.47
5692.42
5529.39
5343.25
10608.5
6956.41
3785.9
8993.93
5221.73
8811.09
13247.1
6822.1
8730.32
11046.2
10707.4
11049.3
5552.05
10659.9
7071.27
13304.4
10808.6
10663
5495.35
10525.1
8802.44
8955.13
6886.55
5289.91
5458.55
5465.05
3746.93
6886.95
4426.94
4371.67
3734.83
3132.99
3111.11
2691.26
2901.99
3028.41
2688.56
2820.83
2670.19
2756.74
2638.25
2646.47
2608.36
2552.1
2604.38
2671.95
2592.57
2698.7
2718.3
3086.05
2949.68
2968.34
3623.14
3587.96
3657.91
7526.85
4638.33
4656.19
7634.98
7530.39
11326.8
11353.1
11379.8
6921.26
6873.62
7626.65
7618.49
11215.6
7609.78
7628.75
7584.25
6943.58
6972.18
11254.7
11367.1
11169.6
7523.02
4654.79
4649.83
2970.01
3593.98
3626.16
3702.67
2955.49
3106.91
2765.74
2566.74
2682.17
2678.91
2621.29
2697.45
2611.38
2546.48
2546.48
2546.48
2546.5
2547.82
2572.7
2642.67
2891.74
4979.81
3144.22
4948.48
5877.1
4960.29
5867.25
5899.36
4951.48
5854.75
5884.24
5901.94
4970.71
4948.32
3126.76
2889.98
2647.49
2546.53
2556.62
2546.48
2546.48
2546.48
2590.28
2578.48
2793.27
4432.77
4444.76
4168.44
4177.84
4435.66
4443.55
4167.7
4175.8
2795.83
2573.82
2587.45
2546.48
2546.48
2546.48
2546.48
2549.83
2548.01
2768.95
2787.01
4158.89
4087.21
4092.43
4163.14
4092.06
4087.74
4162.41
4158.54
2767.87
2786.74
2547.13
2548.95
2546.48
2546.48
2546.48
2546.48
2546.48
2546.48
2546.48
2546.48
2547.16
2547.17
2871.4
4411.23
4408.32
4905.51
4907.53
4907.47
4907.3
4408.44
4411.06
4905.32
4907.2
2870.76
2547.15
2547.17
2546.48
2546.48
2546.48
2546.48
2546.48
2546.48
2546.48
2555.14
2611.07
3084.61
3558.33
3080.32
3553.82
5793.41
5792.56
5792.55
7419.94
7419.91
7420.07
7420
7420.04
10940.3
10940.3
10940.3
10940.3
10940.3
10940.3
7419.83
7419.94
7420.01
10940.3
5792.55
5792.59
5793.41
7419.84
3558.17
3554.18
3080.59
2611.07
3084.38
2555.14
2546.48
2546.48
2546.48
2546.48
2546.48
2546.48
2546.59
2546.59
2841.03
6601.59
4522.52
4522.49
4525.38
6601.19
6601.57
6601.16
6601.56
6601.56
6601.19
6601.16
6601.58
4522.62
4522.64
4525.33
2841.03
2546.59
2546.59
2546.48
2546.48
2546.48
2546.48
2546.48
2595.04
3508.84
3508.86
5118.6
5118.58
5118.58
5118.59
5118.6
5118.62
5118.6
5118.62
5118.58
5118.6
5118.58
3508.86
3508.85
2595.04
2546.48
2546.48
2546.48
2546.48
2546.48
2546.74
2546.75
2970.36
2683.15
2970.37
4246.54
4246.49
4246.54
10088.9
10088.9
10088.9
4246.56
4246.54
4246.54
2970.35
2970.36
2683.14
2546.74
2546.75
2546.48
2546.48
2546.48
2546.48
2568.2
3637.22
3637.2
3637.17
7164.64
8376.22
8376.19
8376.2
8376.19
7164.75
7164.67
7164.71
7164.75
7164.71
7164.64
7164.67
8376.22
8376.19
8376.19
7164.75
3637.17
3637.2
3637.22
2568.2
2546.48
2546.48
2546.56
2546.56
3197.62
3197.63
6271.62
6271.62
6271.66
6271.65
6271.62
6271.65
6271.62
6271.62
6271.62
3197.63
3197.62
2546.56
2546.56
2546.48
2546.48
2895.58
2895.59
5583.42
5583.38
5583.38
5583.4
5583.34
5583.38
5583.37
5583.35
5583.36
5583.37
5583.38
2895.59
2895.59
2546.48
2705.27
5017.93
5017.98
5017.98
5017.99
5017.98
5017.98
5017.99
5017.98
5017.93
5017.98
2705.27
5102.67
5132.55
5137.69
5181.7
5748.7
5201.83
6034.54
5275.56
6700.03
6117.67
6980.15
7369.5
9038.67
7496.54
11715
8023.2
6054.85
5662.88
7473.94
11373.6
11299
9172.72
8315.66
7005.45
8408.7
6146.76
7054.77
5997.07
5827.81
5288.18
5206.98
5181.92
5139.03
5122.42
5101.86
2558.29
2589.32
2597.99
2636.44
2691.5
2790.66
2879.4
3234.92
3541.35
4316.66
3717.87
4574.11
5515.04
5537.04
5424.4
4795.36
8400.48
10322.6
7049.87
9991.97
10277.9
10620.6
13291.8
3207.71
13422.6
13403.6
13456.3
13546.5
13368.5
13380.9
13472.5
13452.9
13641.8
13442.5
13682.9
3256.2
13526.7
13514.5
13536.3
10400.7
10385.5
10392.7
5533.81
10499.4
6670.62
5251.49
5341.45
5279.51
4646.5
3457.46
4358.89
3176.74
3681.17
2739.52
2700.88
2643.3
2596.04
2593.1
2555.47
2605.92
2595.76
2672.98
2683.05
2726.34
2772.73
2724.91
2790.23
2940.11
3002.2
3664.5
3667.15
3681.61
4671.89
4663.36
4690.43
7610.4
7625.55
7584.07
11153.6
11204.3
11288.1
7107.55
6966.56
11376.3
7639.21
19764.8
19768.1
19722.3
19760.8
11387.3
8430.34
19788.5
19700.5
19720.4
19796
19686.5
19653.9
19632.4
19615.4
19625.6
11351.8
11336.7
19792.2
19762.9
19725.4
19686.8
11260.9
7607.41
7600.46
7595.65
7623.8
6841.98
7114.53
6964.13
11222.3
11347.9
3675.74
4661.18
4695.18
3650.91
3695.22
4643.54
2927.47
3010.01
2721.9
2680.12
2741.03
2574.61
2693
2597.91
2608.14
2546.48
2546.48
2546.48
2546.48
2547.49
2585.74
2658.11
2644.14
3151.16
3132.8
2912.84
2908.03
5814.82
5858.72
5905.12
4990.9
4942.81
5910.61
4981.05
5863.05
5812.79
4937.63
3151
3143.45
2919.13
2907.69
2631.41
2620.79
2546.48
2546.48
2546.48
2546.48
2546.48
2587.76
2808.53
2805.39
4180.07
4168.84
4444.58
4427.39
4177.52
4428.99
4442.36
4167.48
2805.61
2810.25
2583.74
2546.48
2546.48
2546.48
2546.48
2546.48
2553.25
2778.37
4092.39
2766.96
4086.32
4163.62
2782.5
2791.6
4159.19
4086.57
4091.5
4158.66
4162.68
2777.44
2769.8
2783.27
2791.62
2551.93
2546.48
2546.48
2546.48
2546.48
2546.48
2546.48
2546.48
2546.48
2546.48
2547.21
2865.99
2872.97
4408.1
4411.16
4905.63
4907.62
4408.12
4410.8
4907.25
4905.36
2866.7
2872.61
2547.2
2546.48
2546.48
2546.48
2546.48
2546.48
2546.48
2546.48
2611.07
2611.07
2555.14
2555.14
3080
3084.95
5793.29
5792.47
5793.39
3553.26
3558.35
10940.3
7419.91
7420.04
7420.01
7420.07
10940.3
10940.3
10940.3
10940.3
10940.3
10940.3
7419.8
5793.34
7419.87
7419.78
7419.9
10940.2
10940.2
10940.2
5793.19
5792.44
3553.85
3558.27
3084.91
3080.08
2555.14
2555.14
2611.07
2611.07
2546.48
2546.48
2546.48
2546.48
2546.48
2546.48
2546.59
2841.04
2841.03
4525.42
4522.41
4525.45
6601.16
6601.57
6601.2
6601.56
19075.7
19075.6
19075.7
19075.6
19075.7
19075.7
13946.4
19075.7
19075.7
19075.6
19075.5
19075.6
19075.5
19075.6
19075.5
19075.4
19075.4
19075.5
6601.15
6601.55
6601.19
6601.56
4525.41
4522.47
4525.34
2841.03
2841.04
2546.59
2546.48
2546.48
2546.48
2546.48
2546.48
2595.03
2595.03
3508.85
3508.87
5118.62
5118.6
5118.59
4185.83
12878.2
12878.2
12878.2
12878.2
12878.2
12878.2
12878.2
12878.2
12878.2
12878.2
12878.2
12878.2
12878.2
12878.2
12878.2
12878.2
12878.2
5118.59
5118.62
5118.6
3508.85
3508.87
2595.03
2595.03
2546.48
2546.48
2546.48
2546.48
2546.48
2546.75
2970.35
2970.35
2683.15
2683.15
4246.58
4246.54
4246.51
10088.9
10088.9
10088.9
2547.75
10088.9
10088.9
10088.8
10088.9
10088.9
10088.9
10088.9
10088.9
10088.8
10088.9
10088.9
4246.54
4246.54
4246.51
2683.16
2683.15
2970.35
2970.37
2546.75
2546.48
2546.48
2546.48
2546.48
2568.2
2568.2
3637.19
3637.24
7164.75
7164.71
8376.19
8376.19
8376.22
8376.2
7164.67
7164.75
8376.23
2546.48
8376.22
8376.23
8376.2
8376.19
8376.19
7164.67
7164.71
7164.75
7164.75
3637.24
3637.19
2568.2
2568.2
2546.48
2546.48
2546.56
3197.64
3197.64
6271.62
6271.62
6271.66
6271.65
2546.48
6271.62
6271.65
6271.62
6271.66
3197.64
3197.64
2546.56
2546.48
2546.48
2895.59
2895.59
5583.35
5583.38
5583.39
2546.48
5583.38
5583.39
5583.34
2895.59
2895.59
2546.48
2705.27
2705.27
5018.01
5017.99
5017.98
2546.48
5018.01
5017.98
5017.99
2705.27
2705.27
5092.96
5113.94
5107.68
5129.38
5124.46
5757.18
5184.03
5406.59
6555.21
8143.32
7507.25
6760.39
9103.69
10710.2
7290.69
7425.99
8906.85
7546.85
7301.16
8483.1
10387.1
8405.04
7726.57
7493.77
6718.64
5769.54
5945.08
5195.56
5124.49
5128.3
5111.81
5111.06
2625.32
2577.36
2719.54
2829.69
2908.61
3991.57
3721.35
3031.76
3379.61
5294.65
4622.42
4378.34
5333.15
5360.58
4653.63
5740.07
10610.7
10630.6
8727.46
10759.3
7065.14
10802.9
6888.12
6449.79
7860.61
5094.88
13308.1
13491.1
13488.6
3157.21
13563.7
13525
13470.1
13293.9
13360.9
13583.4
13320.1
13424
13344.3
13569.3
3111.44
10767.3
13460.1
13518.1
5908.52
8519.99
10514.9
5438.64
10816.5
10915
5529.83
10418.9
7142.13
7992.41
4635.46
4597.39
4415.52
5311.85
3970.98
3588.94
3318.57
3179.96
3545.15
2778.96
2907.2
2829.36
2729.19
2590.28
2628.89
2669.83
2686.85
2753.43
2700.85
3012.04
3698.96
4688.15
4712.15
6770.95
7628.14
11355
11362.7
7094.33
11409.3
7620.74
7493.97
11361.8
11466.1
19181.8
19194.5
19583.7
19244.7
19336.5
19456.1
19190.6
19216.2
11076.5
19590.4
19554.6
19523.3
19496.3
19358.2
19274
19445
11312
11346.1
11319.9
11302.6
6723.31
7093.51
7628.12
7605.23
7533.18
6774.01
4688.19
4667.18
3710.34
2997.11
2721.14
2752.09
2679.66
2686.14
2616.23
2909.94
3148.29
4942.25
4982.14
5856.25
5894.8
5905.02
4964.97
4939.52
5853.63
2921.24
3143.01
2632.35
2563.23
2806.96
4428.03
4168.5
4428.69
4167.24
2805.13
2576.91
2546.93
2769.59
4086.44
2784.37
4159.07
4086.4
4158.53
2770
2783.11
2547.77
2547.15
2866.92
4408.13
4907.43
4905.59
4907.1
4905.3
4408.04
2866.59
2547.15
2555.14
2611.07
3080.33
3554.13
5793.38
5792.47
7420.02
7419.98
7419.84
10940.2
10940.2
10940.3
10940.2
10940.3
10940.1
10940.2
10940.1
10940.2
10940.1
7419.69
7419.76
7419.84
5793.23
3553.55
5792.39
3079.98
2611.07
2555.14
2546.59
2841.04
4525.36
4522.56
6601.16
6601.2
6601.56
19075.6
19075.6
19075.7
19075.6
19075.6
19075.6
19075.6
19075.6
19075.5
19075.5
19075.5
19075.6
19075.6
19075.5
19075.6
6601.55
6601.19
6601.15
4522.42
4525.4
2841.04
2546.59
2595.03
3508.86
5118.62
5118.6
12878.2
12878.2
12878.2
12878.2
12878.2
12878.2
12878.2
12878.2
12878.2
12878.2
12878.2
12878.2
12878.2
12878.2
12878.2
5118.62
5118.6
3508.86
2595.03
2546.74
2683.15
2970.37
4246.54
4246.58
10088.9
10088.8
10088.9
10088.9
10088.9
10088.9
10088.9
10088.9
10088.9
10088.9
10088.9
10088.9
10088.9
10088.9
10088.8
4246.54
4246.54
2970.35
2683.15
2546.74
2568.2
3637.2
3637.19
8376.19
8376.19
8376.22
7164.71
7164.75
7164.67
7164.64
8376.22
8376.23
8376.22
8376.22
8376.23
7164.64
8376.19
8376.19
7164.75
7164.71
7164.67
3637.19
3637.2
2568.2
2546.56
3197.64
6271.62
6271.62
6271.65
6271.65
6271.62
6271.62
3197.64
2546.56
2895.59
5583.38
5583.34
5583.38
5583.34
5583.38
5583.38
2895.59
2705.27
5017.99
5017.98
5017.99
5017.98
2705.27
5112.9
5149.51
5130.88
5177.51
5916.58
5358.39
7293.68
7550.57
9622.5
7853.47
8454.57
11403.5
9982.53
9731.85
10727.3
8776.59
10351.1
14287.8
15721.9
12453.3
8802
8282.95
9155.2
7634.34
7535.41
7330.18
5295.15
5220.7
5162.67
5137
5146.87
5110.97
2552.61
2614.38
2652.72
2663.03
2643.2
2670.01
2697.45
2954.01
2765.5
2873.01
3237.35
3857.66
4709.14
4315.57
4192.08
3754.63
3724.96
5455
5440.43
5431.77
3734.92
5907.35
10391.5
10326.2
10627
10565.8
5644.88
6896.04
8719.22
10668.5
10615
10767.3
8704.5
5480.6
6936.91
5504.59
5432.08
4656.89
3704.45
4035.23
3922.2
4455.74
3751.28
3727.34
3172.84
2869.57
2724.52
2732.55
2675.62
2663.69
2661.27
2660.52
2614.16
2552.89
2601.61
2589.43
2648.14
2678.39
2723.63
2937.1
2940.3
3098.73
3675.7
3616.62
3597.71
6916.53
4628.4
4657.46
4658.12
7572.72
7507.11
7179.09
6803.18
6964.46
4694.49
11408.2
11395.8
11345.2
7640.64
7599.83
7604.16
7600.67
6929.99
11332.8
11145.4
7056.26
7562.05
7582.94
7525.67
6790.6
4644.3
4646.54
4656.85
3574.14
2993.44
3684.99
3601.35
2957.3
3109.08
2758.29
2670.8
2666.42
2590.21
2609.56
2546.48
2546.48
2546.48
2546.48
2579.76
2549.01
2646.67
2888.82
3147.82
4943.76
4962.67
5902.07
5879.65
5876.37