# vtk DataFile Version 3.0
Happy Go Lucky
ASCII
DATASET POLYDATA
POINTS 3856 float
-0.195916 -1.01645 -1.00843
0.175122 -1.01592 -1.00796
-0.015275 -0.954809 -0.997647
0 -0.784984 -1
-0.311179 -1.01478 -0.932937
-0.213807 -1.01541 -0.906784
-0.0544543 -1.0176 -0.940422
0.0476853 -1.01627 -0.977733
0.126284 -1.00132 -0.92997
0.216732 -1.01782 -0.912223
0.318222 -1.01502 -0.937947
-0.378536 -0.951027 -0.935855
-0.208285 -0.940038 -0.960794
-0.1356 -0.980628 -0.950821
0.0072759 -0.960811 -0.914106
0.198665 -0.941994 -0.957399
0.37318 -0.945647 -0.914299
-0.382683 -0.784984 -0.923879
-0.19509 -0.784984 -0.980784
-4.62584e-15 -0.784984 -0.9
0.19509 -0.784984 -0.980785
0.382683 -0.784984 -0.923879
-0.37533 -0.58989 -0.906127
-0.191341 -0.58989 -0.961939
0 -0.58989 -0.980785
0.191342 -0.58989 -0.96194
0.37533 -0.58989 -0.906127
-0.18024 -0.402295 -0.906127
0 -0.402295 -0.923879
0.18024 -0.402295 -0.906127
-0.53382 -1.016 -0.866749
-0.427554 -1.01545 -0.889834
-0.381332 -1.01951 -0.79781
-0.285603 -1.01822 -0.840866
-0.196583 -1.01771 -0.811615
-0.122309 -1.01761 -0.871706
-0.0318325 -1.01897 -0.834207
0.0547494 -1.01973 -0.876043
0.146612 -1.01853 -0.839101
0.285669 -1.01927 -0.847911
0.425167 -1.01581 -0.889291
0.51748 -1.01559 -0.861753
-0.566859 -0.948477 -0.816158
-0.467659 -0.999927 -0.806683
-0.35388 -0.966184 -0.861756
-0.228322 -0.943906 -0.848166
-0.136915 -0.946379 -0.813427
-0.156858 -0.922623 -0.890592
-0.0682169 -0.944895 -0.866912
0.0880301 -0.948338 -0.828452
0.00936745 -0.944993 -0.810302
0.152553 -0.93225 -0.880961
0.220341 -0.956711 -0.846161
0.358936 -0.97586 -0.836968
0.336689 -0.900141 -0.834042
0.563413 -0.944181 -0.824829
-0.3482 -0.893136 -0.821955
-0.182718 -0.883351 -0.800077
-0.00548232 -0.888543 -0.892168
-0.0170341 -0.868286 -0.812228
-0.555569 -0.784984 -0.831469
-0.344414 -0.784984 -0.831491
-0.175581 -0.784984 -0.882706
0.000172835 -0.783922 -0.799924
0.175581 -0.784984 -0.882707
0.344415 -0.784984 -0.831492
0.55557 -0.784984 -0.831469
-0.337797 -0.609399 -0.815514
-0.172207 -0.609399 -0.865745
0 -0.609399 -0.882707
0.172208 -0.609399 -0.865746
0.337797 -0.609399 -0.815515
-0.544895 -0.58989 -0.815493
0.544895 -0.58989 -0.815493
-0.353553 -0.402295 -0.853553
-0.162216 -0.440563 -0.815514
0 -0.440563 -0.831491
0.162216 -0.440563 -0.815515
0.353553 -0.402295 -0.853553
-0.162211 -0.229409 -0.815493
0 -0.229409 -0.83147
0.162212 -0.229409 -0.815493
-0.700475 -1.01585 -0.745237
-0.545358 -1.01612 -0.757831
-0.455688 -1.01755 -0.719798
-0.30016 -1.02049 -0.746577
-0.208361 -1.02161 -0.719363
-0.109151 -1.02017 -0.778805
-0.0280962 -1.01969 -0.734512
0.0511252 -1.019 -0.783808
0.133386 -1.01864 -0.742339
0.221947 -1.01841 -0.778587
0.326 -1.01688 -0.755929
0.472646 -1.01894 -0.71621
0.415748 -1.02016 -0.791955
0.565375 -1.01717 -0.775132
0.647419 -1.01678 -0.712821
-0.503114 -0.929078 -0.768015
-0.437367 -0.925966 -0.716158
-0.302812 -0.946804 -0.695526
-0.371791 -0.96357 -0.733099
-0.299369 -0.9459 -0.789213
-0.224518 -0.944725 -0.758023
-0.148669 -0.956854 -0.726527
-0.0615177 -0.94326 -0.768876
0.0293972 -0.953559 -0.724823
0.0967483 -0.910408 -0.748039
0.184647 -0.929658 -0.711593
0.162606 -0.94961 -0.786701
0.260902 -0.963033 -0.717996
0.28142 -0.947518 -0.792745
0.408288 -0.951704 -0.734911
0.486758 -0.968841 -0.788736
0.691999 -0.939643 -0.702731
-0.309298 -0.879679 -0.737859
-0.115667 -0.885227 -0.736948
-0.0442022 -0.83144 -0.697318
0.0124431 -0.880343 -0.73685
0.169259 -0.871189 -0.787215
0.142692 -0.848937 -0.709367
0.322749 -0.890526 -0.745266
0.515292 -0.899326 -0.762218
-0.707106 -0.784984 -0.707106
-0.500012 -0.784984 -0.748322
-0.306145 -0.784956 -0.739104
-0.156106 -0.785008 -0.784777
0.00801029 -0.767609 -0.704915
0.156001 -0.784425 -0.784638
0.306163 -0.784991 -0.73914
0.500013 -0.784984 -0.748323
0.707107 -0.784984 -0.707107
-0.490405 -0.609399 -0.733944
-0.300264 -0.628908 -0.724902
-0.153073 -0.628908 -0.769551
0 -0.628908 -0.784628
0.153073 -0.628908 -0.769552
0.300264 -0.628908 -0.724902
0.490406 -0.609399 -0.733944
-0.51328 -0.402295 -0.768177
-0.318198 -0.440563 -0.768198
-0.144192 -0.478831 -0.724902
0 -0.478831 -0.739103
0.144192 -0.478831 -0.724902
0.318198 -0.440563 -0.768198
0.51328 -0.402295 -0.768178
-0.318189 -0.229409 -0.768177
-0.14599 -0.284965 -0.733943
0 -0.284965 -0.748323
0.145991 -0.284965 -0.733944
0.31819 -0.229409 -0.768178
0 -0.0778749 -0.707107
-0.696024 -1.01643 -0.643293
-0.609641 -1.01453 -0.686281
-0.526157 -1.02122 -0.637801
-0.376298 -1.01926 -0.666723
-0.28088 -1.02093 -0.655746
-0.114061 -1.02408 -0.687205
-0.187774 -1.02195 -0.629492
-0.0307611 -1.01966 -0.641812
0.0558639 -1.02433 -0.689525
0.0491689 -1.03848 -0.598828
0.131719 -1.02108 -0.633309
0.206748 -1.02038 -0.686386
0.233827 -1.02442 -0.597104
0.297677 -1.02203 -0.663078
0.386528 -1.02101 -0.682188
0.501112 -1.01922 -0.60523
0.558384 -1.01386 -0.68126
0.600174 -1.01999 -0.598224
0.695364 -1.01676 -0.607118
0.743521 -1.01505 -0.690486
-0.709329 -0.94296 -0.692977
-0.639745 -0.913125 -0.663305
-0.521488 -0.954413 -0.693478
-0.577544 -0.947321 -0.630121
-0.45035 -0.970075 -0.645426
-0.376558 -0.953184 -0.606221
-0.292259 -0.937724 -0.617118
-0.221656 -0.951351 -0.669626
-0.110018 -0.972831 -0.622408
-0.14316 -0.912256 -0.656606
-0.066264 -0.951765 -0.68935
-0.0171164 -0.901962 -0.658637
0.0340953 -0.962053 -0.639449
0.105792 -0.946339 -0.598117
0.192509 -0.954394 -0.631157
0.111794 -0.955008 -0.68284
0.273965 -0.949515 -0.625115
0.353144 -0.964998 -0.61396
0.33785 -0.946683 -0.692052
0.442576 -0.966506 -0.64751
0.501873 -0.937607 -0.691886
0.551995 -0.94367 -0.623698
0.637912 -0.956905 -0.641913
-0.455928 -0.887527 -0.643423
-0.363387 -0.892137 -0.652523
-0.220657 -0.88231 -0.630042
-0.292502 -0.850697 -0.65959
-0.153056 -0.835796 -0.667883
-0.0779316 -0.858411 -0.624019
0.00614684 -0.82858 -0.615568
0.0669211 -0.887117 -0.66027
0.191614 -0.827329 -0.5978
0.151837 -0.888658 -0.639171
0.106075 -0.818526 -0.630452
0.255556 -0.891604 -0.680127
0.287014 -0.827712 -0.638901
0.339671 -0.889338 -0.623685
0.425251 -0.890307 -0.666473
0.638272 -0.879517 -0.64259
-0.636397 -0.784984 -0.636398
-0.444455 -0.784984 -0.665175
-0.265415 -0.772135 -0.648405
-0.134471 -0.763961 -0.694729
-0.106932 -0.746993 -0.60982
-0.000834247 -0.750228 -0.616326
0.13685 -0.744213 -0.598534
0.137823 -0.768021 -0.690117
0.264396 -0.753811 -0.655883
0.444456 -0.784984 -0.665176
0.636396 -0.784951 -0.636394
-0.624167 -0.609399 -0.624168
-0.435916 -0.628908 -0.652394
-0.262731 -0.648418 -0.634289
-0.133939 -0.648418 -0.673357
5.76005e-12 -0.648418 -0.68655
0.13394 -0.648416 -0.673363
0.262731 -0.648418 -0.634289
0.435916 -0.628908 -0.652394
0.624168 -0.609399 -0.624168
-0.693519 -0.58989 -0.69352
-0.247487 -0.5171 -0.597487
-0.126168 -0.5171 -0.634289
-3.09759e-17 -0.5171 -0.646715
0.126168 -0.5171 -0.634289
0.247487 -0.5171 -0.597487
0.69352 -0.58989 -0.69352
-0.653281 -0.402295 -0.653281
-0.410624 -0.478831 -0.614542
-0.461952 -0.440563 -0.69136
-0.282843 -0.478831 -0.682842
0.282843 -0.478831 -0.682843
0.461952 -0.440563 -0.69136
0.410624 -0.478831 -0.614542
0.653281 -0.402295 -0.653281
-0.254551 -0.340522 -0.614542
-0.129769 -0.340522 -0.652394
0 -0.340522 -0.665176
0.129769 -0.340522 -0.652394
0.254552 -0.340522 -0.614542
-0.415745 -0.284965 -0.622207
-0.461939 -0.229409 -0.691341
-0.28637 -0.284965 -0.69136
0.286371 -0.284965 -0.69136
0.415746 -0.284965 -0.622207
0.46194 -0.229409 -0.691342
-0.124155 -0.148584 -0.624168
0 -0.148584 -0.636396
0.124155 -0.148584 -0.624168
-0.270598 -0.0778749 -0.653281
-0.13795 -0.0778749 -0.69352
0.13795 -0.0778749 -0.69352
0.270598 -0.0778749 -0.653281
-0.885635 -1.01427 -0.539229
-0.699131 -1.01791 -0.548431
-0.789913 -1.01791 -0.520865
-0.610388 -1.01971 -0.588856
-0.535376 -1.01923 -0.527547
-0.453702 -1.02139 -0.576426
-0.340482 -1.02423 -0.581252
-0.281069 -1.02458 -0.511201
-0.108154 -1.04051 -0.504302
-0.107046 -1.04129 -0.592678
-0.189311 -1.02149 -0.535719
-0.028789 -1.02276 -0.549785
0.0690821 -1.02765 -0.513184
0.149975 -1.04078 -0.549173
0.241772 -1.0248 -0.503001
0.318261 -1.02015 -0.557668
0.407135 -1.02246 -0.589617
0.459886 -1.01399 -0.515982
0.549412 -1.02158 -0.521135
0.641449 -1.01997 -0.510561
0.760943 -1.01657 -0.538763
0.862925 -1.01575 -0.52223
-0.824405 -0.94472 -0.55647
-0.740311 -0.909001 -0.529193
-0.664839 -0.946259 -0.588909
-0.674007 -0.946773 -0.499212
-0.593995 -0.948663 -0.539041
-0.516082 -0.955169 -0.580155
-0.441995 -0.928693 -0.567824
-0.398181 -0.98599 -0.527307
-0.477847 -0.948633 -0.498184
-0.321315 -0.95397 -0.537794
-0.38481 -0.90907 -0.506241
-0.254094 -0.997836 -0.580578
-0.249388 -0.919169 -0.546122
-0.185915 -0.94757 -0.589529
-0.11029 -0.984625 -0.545628
-0.168185 -0.93883 -0.51202
-0.115916 -0.903891 -0.569056
-0.0410688 -0.947728 -0.588896
-0.0614364 -0.934657 -0.509826
0.0378132 -0.974707 -0.562543
0.059558 -0.914945 -0.510181
0.177455 -0.984026 -0.558955
0.119271 -0.965483 -0.522864
0.179036 -0.904643 -0.558673
0.254849 -0.955098 -0.547104
0.322104 -0.913399 -0.540585
0.384094 -0.960914 -0.528399
0.428433 -0.926418 -0.581037
0.45714 -0.921128 -0.497179
0.50752 -0.946393 -0.55699
0.596181 -0.949216 -0.543614
0.68742 -0.954785 -0.540009
0.753188 -0.920633 -0.512127
0.81612 -0.948417 -0.561904
-0.600618 -0.880011 -0.576234
-0.511613 -0.876695 -0.568519
-0.51794 -0.815385 -0.507727
-0.409865 -0.854258 -0.576471
-0.359909 -0.822335 -0.495468
-0.331495 -0.877863 -0.567635
-0.263389 -0.834859 -0.576783
-0.237991 -0.811193 -0.499994
-0.18694 -0.86492 -0.543218
-0.134985 -0.815738 -0.576921
-0.0558106 -0.853362 -0.542491
0.0289828 -0.836446 -0.527875
0.102837 -0.870563 -0.565219
0.0215755 -0.898814 -0.581715
0.133789 -0.81954 -0.507659
0.239073 -0.884957 -0.498606
0.255391 -0.879571 -0.582939
0.225208 -0.810411 -0.521416
0.394959 -0.87107 -0.516838
0.322929 -0.827769 -0.556084
0.406585 -0.846308 -0.595316
0.481606 -0.858633 -0.55019
0.551774 -0.886674 -0.503955
0.583432 -0.876565 -0.578238
-0.831468 -0.784984 -0.55557
[...]
POINT_DATA 3856
SCALARS scalar float
LOOKUP_TABLE default
5110.24
5109.89
2564.1
2546.48
5102.11
5103.85
5120.82
5110.92
5122.85
5120.71
5103.3
2593.62
2581.21
2599.64
2656.74
2559.91
2573.02
2546.48
2546.48
2546.48
2546.48
2546.48
2546.48
2546.48
2546.48
2546.48
2546.48
2546.48
2546.48
2546.48
5109.74
5104.76
5142.02
5125.23
5126.29
5122.72
5127.29
5144.08
5121.19
5136.87
5106.86
5105.58
2582.91
2574.07
2635.41
2584.86
2661.89
2605.51
2583.02
2629.09
2670.23
2618.85
2655.23
2647.75
2620.46
2569.16
2618.44
2617.51
2644.5
2645.75
2546.48
2546.48
2546.48
2556.86
2546.48
2546.48
2546.48
2546.48
2546.48
2546.48
2546.48
2546.48
2546.48
2546.48
2546.48
2546.48
2546.48
2546.48
2546.48
2546.48
2546.48
2546.48
5106.03
5108.67
5121.66
5142.6
5157.32
5150.2
5141.51
5138.23
5137
5125.25
5111.95
5133.81
5148.12
5115.78
5111.86
2642.35
2670.43
2708.11
2673.64
2673.07
2643.76
2682.09
2649.35
2701.36
2651.78
2674.69
2708.26
2708.46
2675.6
2587.7
2617.66
2578.56
2627.45
2617.51
2625.95
2684.7
2622.67
2640.99
2618.14
2627
2546.48
2546.48
2546.89
2547.09
2576.97
2554.45
2546.51
2546.48
2546.48
2546.48
2546.48
2546.48
2546.48
2546.48
2546.48
2546.48
2546.48
2546.48
2546.48
2546.48
2546.48
2546.48
2546.48
2546.48
2546.48
2546.48
2546.48
2546.48
2546.48
5110.41
5101.71
5145.91
5136.31
5162.35
5199.93
5185.07
5152.65
5203.13
5659
5182.52
5160.45
5220.02
5167.26
5158.77
5129.5
5113.65
5144.65
5113.93
5102.58
2590.37
2647.97
2627.87
2679.35
2655.98
2720.73
2701.3
2660.73
2862.39
2731.29
2709.35
2755.18
2754.69
2729.02
2728.45
2691.4
2731.36
2720.34
2698.26
2710.42
2648.59
2630.87
2658.51
2614.47
2640.5
2673.52
2640.76
2661.4
2676.49
2658.03
2634.35
2619.72
2736.88
2663.28
2654.07
2679.42
2674.52
2604.46
2624.72
2546.54
2546.48
2577.69
2598.46
2606.05
2623.13
2605.14
2590.23
2602.6
2546.48
2546.92
2546.48
2546.48
2546.48
2546.48
2546.48
2546.5
2546.48
2546.48
2546.48
2546.48
2546.48
2546.48
2546.48
2546.48
2546.48
2546.48
2546.48
2546.48
2546.48
2546.48
2546.48
2546.48
2546.48
2546.48
2546.48
2546.48
2546.48
2546.48
2546.48
2546.48
2546.48
2546.48
2546.48
2546.48
2546.48
2546.48
2546.48
2546.48
2546.48
2546.48
2546.48
2546.48
5099.42
5122.06
5119.64
5129.53
5138.64
5167.79
5200.72
5290.27
6101.73
5859.62
5200.4
5232.55
5367.85
5951.31
5213.15
5151.64
5177.17
5137.17
5166.19
5145.51
5113.3
5106.22
2555.91
2620.94
2592.7
2645.67
2698.02
2718.71
2769.91
2747.43
2684.71
2795.25
2724.5
2740.44
2719.19
2726.97
2992.33
2837.15
2719.28
2708.49
2881.21
2931.1
2853.02
3116.89
2946.17
2714.02
2777.4
2730.16
2750.77
2712.99
2718.75
2666.62
2639.95
2616.88
2646.05
2572.16
2612.01
2623.88
2696.22
2663.07
2646.04
2678.41
2661.06
2630.57
2691.25
2655.73
2652.82
2731.03
2693.49
2765.32
2678.22
2740.22
2696.1
2683.89
2679.61
2618.1
2670.41
2589.88
2676.79
2641.95
2546.48
2546.48
2566.36
2598.95
2584.82
2594.56
2589.66
2634.44
2681.79
2634.82
2646.57
2608.9
2587.88
2567.27
2592.18
2547.47
2546.48
2546.48
2546.48
2546.5
2550.94
2557.81
2557.16
2569.79
2555.53
2546.48
2546.48
2546.48
2546.48
2546.48
2546.73
2546.65
2546.54
2546.55
2546.48
2546.48
2546.48
2546.48
2546.48
2546.59
2546.48
2546.48
2546.48
2546.48
2546.48
2546.48
2546.48
2546.48
2546.48
2546.48
2546.48
2546.48
2546.48
2546.48
2546.48
2546.48
2546.48
2546.48
2546.48
2546.48
2546.48
2546.48
2546.48
2546.48
2546.48
2546.56
2546.48
2546.48
2546.48
2546.48
2546.48
2546.48
2546.48
5104.56
5128.51
5123.29
5140.88
5184.91
5197.87
5282.11
6312.79
5336.65
6807.49
6721.08
6629.76
7071.3
6664.54
5339.16
6175.35
5328.03
5247.5
5739.94
5220.86
5155.25
5149.88
5122.41
5105.06
2634.78
2696.29
2726.25
2758.04
2758.17
2704.14
2846.05
2853.96
2858.1
3485.3
3207.02
3092.44
3055.13
3214.59
3756.62
3465.39
3226.19
3043.51
3259.72
2976.51
2865.09
3209.35
3025.97
2849.95
2898.07
2713.79
2781.26
2757.33
2735.2
2763.21
2658.55
2676.55
2588.14
2620.06
2646.33
2740.88
2658.71
2631.66
2726.47
2697.67
2724.81
2835.5
2672.76
2746.06
2766.18
2869.23
2978.47
2988.9
2851.42
2768.86
2774.38
2699.5
2732.69
2655.73
2686.18
2735.67
2665.65
2629.79
2546.48
2579.88
2634.9
2782.1
2884.2
2640.19
2685.33
2700.6
2782.71
2798.07
2845.08
2623.2
2812.18
2657.71
2590.78
2549.61
2546.48
2546.48
2565.52
2547.65
2568.04
2618.12
2612.51
2611.49
2609.87
2808.84
2619.46
2600.9
2630.04
2548.27
2552.03
2546.48
2546.48
2546.48
2546.48
2546.58
2581.15
2584.84
2584.86
2619.68
2615.56
2579.69
2622.33
2570.68
2546.94
2546.48
2546.48
2546.48
2546.62
2546.61
2546.59
2546.61
2546.59
2546.61
2546.48
2546.48
2546.48
2546.48
2546.48
2595.03
2595.03
2595.03
2546.48
2546.48
2546.48
2546.48
2546.48
2546.48
2546.48
2546.75
2546.74
2546.75
2546.74
2546.74
2546.75
2546.75
2546.48
2546.48
2546.48
2546.48
2546.48
2568.2
2568.2
2568.2
2568.2
2568.2
2546.48
2546.56
2546.56
2546.56
2546.56
2546.56
2546.56
2546.48
2546.48
5105.11
5131.27
5140.65
5218.54
5238.98
6089.83
5211.44
6071.14
5392.65
6743.99
5543.66
5679.38
7411.2
8714.98
7570.53
8442.75
7181.68
7429.08
7308.31
5486.83
5324.76
5264.59
6338.82
5168.38
5149.07
5140.51
5118.52
2577.11
2622.13
2632.73
2625.65
2729.1
2676.67
2703.6
2692.68
2927.5
2754.7
2939.64
2804.35
2987.33
3257.39
3068.2
3121.57
3887.77
3684.19
3572
3665.8
4427.15
4553.98
4189.46
4217.55
3744.83
4290.72
3749.85
3848.94
3863.65
3725.18
3273.42
3161.37
2837.37
3223.12
2849.13
3120.22
2864.76
3117.39
2784.55
2787.92
2658.5
2717.33
2643.04
2654.69
2726.42
2641.99
2612.4
2576.36
2616.95
2624.14
2699.64
2690.26
2665.14
3000.25
2820.14
2796.42
2826.93
3004.98
2984.51
3229.85
3280.5
3231.64
4231.33
3710.12
3260.64
2991.08
3041.15
3260.26
2955.31
2994.33
3075.34
2786.22
2997.82
2909.9
2820.01
2757.74
2739.63
2632.9
2675.78
2626.16
2639.3
2620.6
2546.48
2546.48
2546.48
2631.67
2584.49
2633.08
2680.52
2774.75
2833.7
2843.95
4198.11
2879.86
4233.86
2883.2
4155.32
4064.15
4189.85
2862.14
2858.54
4160.66
4217.19
2886.5
2818.85
2795.09
2611.52
2694.13
2719.44
2627.5
2605.89
2570.47
2546.48
2546.48
2546.48
2546.48
2546.48
2553.94
2605.01
2796.16
2901.87
2811.66
2879.85
2885.9
4201.01
2804.58
2817.92
2885.81
4050.8
2888.69
2812.92
2900.65
2801.49
2896.98
2585.09
2569.95
2546.48
2546.48
2546.48
2546.48
2546.48
2546.77
2546.76
2590.49
2588.89
2623.42
3088.5
2619.16
3099.99
3095.68
3095.01
3106.68
2614.58
2600.47
2623.98
2580.09
2546.58
2546.72
2546.48
2546.48
2546.48
2546.48
2546.59
2840.58
2842.31
2840.58
2842.37
2840.68
2546.59
2546.48
2546.48
2546.48
2546.48
2595.03
2595.03
2595.04
2595.04
2595.03
2595.03
2546.48
2546.48
2546.48
2546.48
2546.74
2683.15
2683.15
2970.36
2683.15
2683.16
2970.37
2970.35
2683.15
2970.35
2683.14
2970.36
2683.15
2546.74
2546.48
2546.48
2546.48
2568.2
2568.2
2568.2
2568.2
2546.48
2546.48
2546.56
3197.64
3197.64
3197.64
2546.56
2546.48
2546.48
2546.48
2895.59
2895.59
2895.59
2895.59
2895.59
2546.48
2546.48
2705.27
2705.28
2705.27
2705.27
2705.27
2705.27
2705.27
5105.45
5132.2
5157.95
5222.4
5141.85
5223.72
5409.25
7093.22
7900.64
8473.61
7383.66
7343.99
6949.13
7504.37
9696.63
9096.52
9939.27
10406.3
10666
9462.68
10567.3
8658.86
9031.98
8977.8
8635.48
8529.75
5743.34
8373.63
7318.53
6827.6
7622.43
7102.69
5423.23
5199.27
5141.36
5155.44
5106.71
5109.12
2595.93
2641.58
2707.06
2678
2745.68
2704.34
2782.17
2819.86
3370.93
2821.95
3203.08
3883.87
3044.02
3124.79
3273.65
3773.67
4315.31
3812.54
4354.98
4441.62
4647.55
4681.16
5602.27
5386.08
4772.33
4822.98
7219.91
5552.26
4677.94
4832.4
5039.1
4800.75
5693.48
3800.47
3782.11
3640.02
3783.86
3813.95
3833.39
3855.29
3126.67
3162.39
3253.41
2868.36
2821.99
2773.35
2710.3
2700.07
2696.38
2623.55
2562.65
2732.85
2665.77
2738.99
2675.95
2780.39
2672.59
2995.16
3136.92
3705.58
4433.68
4929.23
4503.28
4559.51
3834.08
4198.06
5003.23
4922.77
6013.16
4509.56
4528.15
4490.15
3720.24
5001.53
3735.11
4300.1
3303.28
4442.53
4455.32
3238.6
4422.92
2961.77
2752.15
2838.56
2749.02
2669.4
2644.31
2758.91
2655.37
2685.45
2546.48
2584.59
2603.56
2645.84
2689.2
2725.46
2900.26
2793.16
4133.57
2882.52
4158.88
3833.57
4197.67
4202.01
4236.63
4119.35
4106.45
4150.95
4210.12
4165.99
2917.71
2711.42
2925.05
2799.05
2633.35
2642.16
2608.13
2577.74
2546.48
2546.48
2555.76
2617.34
2808.98
2890.98
2838.73
4177.03
4441.23
2885.37
4444.92
4442.84
4938.59
4935.49
4434.46
4446.61
4946.7
4933.99
4921.69
4948.03
4455.52
4433.47
4460.27
4461.04
4114.54
4921.7
4231.32
2836.62
2896.26
2800.27
2885.39
2619.12
2558.95
2546.48
2546.48
2546.54
2620.35
2588.19
3093.59
2621.27
3102.64
5824.73
5821.09
5823.48
5825.99
5824.71
3098.41
2616.99
3099.39
2618.81
2587.39
2546.48
2546.5
2546.48
2546.6
2842.25
2842.23
2840.96
3558.88
3555.22
3580.95
4547.02
3561.33
3578.9
4522.04
4490.81
4546.42
4525.01
3575.32
3564.11
3568.4
3576.81
2842.31
2842.12
2840.96
2546.6
2546.48
2546.48
2546.48
2595.03
3508.76
3509
3508.76
3508.97
3508.77
3508.96
3508.77
3508.76
3508.97
2595.03
2546.48
2546.48
2546.48
2546.48
2546.75
2683.15
2970.36
2683.15
2970.35
4246.58
4246.54
4246.51
4246.54
4246.54
2970.37
2970.36
2683.15
2683.15
2546.75
2546.48
2546.48
2546.48
2568.2
3637.22
3637.2
3637.24
3637.19
3637.2
3637.19
3637.22
2568.2
2546.48
2546.48
2546.56
3197.62
3197.62
3197.63
3197.62
3197.63
3197.62
2546.56
2546.48
2546.48
2895.6
2895.59
2895.59
2895.59
2546.48
2705.28
2705.26
5018.01
2705.27
2705.27
5114.58
5119.89
5158.37
5259.57
6575.1
8133.33
6294.38
5793.97
9080.93
8964.79
9913.34
7891.62
7858.11
9260.62
7451.64
5754.95
12436
12510.2
10483.4
8109.44
10724.2
9603
10715.6
9267.31
9158.41
8568.74
8084.59
7349.31
5859.72
6750.86
5208.33
5200.34
5182.18
5155.08
5171.79
5112.43
5114.5
2580.7
2661.18
2665
2664.3
2629.16
2706.17
2765.23
2913.5
3241.41
3039.14
3687.74
3641.4
4512.91
5479.44
3694.02
5244.06
4755.36
3804.84
8928.43
6981.85
7084
6874.12
10390.6
4774.55
10720.4
7778.24
7649.2
11471.8
10716.6
9219.03
13341.6
13593.1
7060.61
11778.9
7732.13
13380.6
8066.82
7694.04
13847.8
11408.5
7637.27
11774.9
7026
11389.6
13569.6
10314.1
10411
7102.77
10613.2
6942.68
8699.58
4808.16
6839.31
7047.37
5867.94
7690.66
5384.84
4485.29
4758.23
4383.03
3911.01
3764.13
3681.48
3091.31
3276.85
2867.13
2748.78
2722.22
2715
2680.8
2584.04
2595.8
2648.31
2682.21
2708.28
2655.88
2655.47
2773.2
2839.4
3232.66
2965.09
3197.31
4288.77
4195.72
3782.68
4520.23
4485.53
5039.21
5892.93
6031.1
5053.99
4950.62
4958.92
5862.36
7710.68
7567.1
5828.66
5002.42
5863.45
7539.48
5966.96
4933.85
5054.88
5919.69
5007.76
4228.74
4570.96
4555.29
3679.14
3709.77
3221.12
3023.68
3213.4
2859.24
2801.12
2665.96
2715.8
2668.32
2620.43
2546.49
2549.98
2611.63
2613.44
2887.69
2847.38
2668.67
2873.85
4135.34
4137.84
4214.28
4212.32
4257.12
4149.81
4136.73
4140.05
4179.45
4203.12
2852.4
2718.57
2650.36
2614.45
2594.98
2546.48
2546.48
2546.48
2546.48
2546.53
2552.55
2624.97
2616.6
2829.42
2902.56
4439.11
4441.73
4933.97
4944.53
4936.02
4950.89
4433.13
4444.37
4945.4
4928.34
2834.81
2906.9
2589.51
2615.9
2555.97
2546.48
2546.48
2546.48
2546.48
2546.48
2546.49
2584.44
3105.95
2618.2
3100.36
5819.27
5818.76
5824.7
7453.48
10978.1
10977.1
10977.2
10977.5
7453.97
7454.07
7454.47
7455.1
10979.5
10979.1
10978.6
7453.81
7455.24
7456
7455.79
5825.16
5823.25
5826.85
3100.72
2620.28
3101.53
2586.98
2546.64
2546.48
2546.48
2546.48
2546.48
2546.48
2546.59
2546.61
2840.91
3565.3
3577.98
4546.54
4515.72
6607.47
4547.09
6607.71
6614.85
6607.13
6614.62
6608.04
6613.95
6613.79
4545.2
4545.92
4524.59
6607.68
3575.94
3566.99
2841.12
2546.59
2546.59
2546.48
2546.48
2546.48
2546.48
2546.48
2595.04
3508.78
3508.95
5118.6
5118.58
5118.58
5118.59
5118.62
5118.6
5118.6
5118.62
5118.58
5118.6
5118.58
3508.96
3508.81
2595.04
2546.48
2546.48
2546.48
2546.48
2546.48
2546.74
2546.75
2970.36
2683.15
2970.37
4246.49
4246.54
4246.54
10088.9
10088.9
10088.9
4246.56
4246.54
4246.54
2970.35
2970.36
2683.14
2546.74
2546.75
2546.48
2546.48
2546.48
2546.48
2568.2
3637.22
3637.2
3637.17
8376.22
8376.19
8376.2
8376.19
8376.19
8376.22
8376.19
3637.17
3637.22
3637.2
2568.2
2546.48
2546.48
2546.56
2546.56
3197.62
3197.63
7164.64
7164.67
7164.71
7164.75
7164.75
7164.71
7164.64
7164.67
7164.75
3197.63
3197.62
2546.56
2546.56
2546.48
2546.48
2895.58
2895.59
5583.38
5583.42
6271.62
5583.38
5583.38
5583.4
5583.34
6271.62
6271.62
6271.66
6271.65
5583.37
5583.35
5583.36
6271.65
6271.62
6271.62
5583.37
5583.38
6271.62
2895.59
2895.59
2546.48
2705.27
5017.98
5017.98
5017.93
5017.99
5017.98
5017.98
5017.99
5017.98
5017.93
5017.98
2705.27
5106.07
5146.95
5134.22
5138.53
5177.93
5239.92
5990.33
5260.3
5892.89
6246.11
7260.9
6764.05
7826.76
8457.85
5827.73
10413.6
9745.91
5837.23
5549.59
12693
13706.9
10572.9
8390.67
8170.64
8193.03
6686.25
8684.61
5853.83
5847.69
5204.55
5143.33
5160.96
5106.96
2643.77
2654.47
2704.76
2690
2694.9
2960.88
2866.01
4034.19
3261.08
3075.47
3329.6
2820.24
3753.01
3640.53
3800.53
4752.69
7242.99
5536.42
4866.94
4775.47
5282.48
7709.53
11943.9
11432.7
6953.06
10220.6
10182.5
10567.1
10545.2
13060.3
11577.8
13619.5
8637.88
19707.6
20075.1
20081.2
19481.8
11263.1
19535.3
19967.5
20046.4
14056.1
14007.1
14162
13620.2
14224.1
11460.1
19805.1
11233.1
13636.3
14085.5
13741.6
19543.3
13812.2
13878.8
13250.8
19897.6
20273.6
20038.6
19967.7
20215.4
19812.5
19595
11259.4
7711.91
13332
11334.4
10382.9
10892.9
7004.17
7044.48
10795.3
11770.7
11306.9
7640.1
4789.39
4826.73
4775.94
5595.59
4260.05
3837.21
4093.49
2902.27
3067.86
3405.04
2888.61
2765.78
2689.55
2706.46
2638.19
2666.31
2667.1
2624.97
2708.63
2647.45
2761.87
2668.9
2686.47
2717.54
2785.51
2904.2
3244.4
3228.16
5941.6
5035.93
4534.29
4947.35
7566.56
5945.85
5837.15
5848.11
11205.2
7549.29
7592.37
11102.4
5995.36
7554.58
7567.73
5930.36
5859.55
5860.76
4722.4
4499.5
4981.89
4273.78
3750.03
4226.44
3111.53
3184.62
3225.46
2785.7
2943.4
2791.23
2710.12
2648.03
2653.09
2688.29
2641.11
2546.48
2546.48
2551.18
2580.9
2620.03
2631.82
2687.19
2865.56
3771.58
2937.45
4057.46
4240.43
4165.7
4127.01
4274.02
4215.01
2897.07
4167.74
4057.39
4226.16
2913.11
2704.13
2773.56
2622.25
2605.9
2590.91
2565.01
2546.48
2546.48
2546.48
2546.48
2546.48
2567.42
2790.83
2615.08
2887.32
2798.71
2892.04
4442.22
4424.57
4926.48
4948.06
4459.64
4422.25
4940.56
4940.34
2880.99
2818.44
2800.3
2894.03
2628.96
2560.33
2546.49
2546.48
2546.48
2546.48
2546.48
2546.88
2588.79
2594.25
2618.89
2624.91
3099.56
3095.91
5820.01
5818.86
5822.55
7453.07
7454.22
7453.65
7454.68
10976.7
10976.6
10976.5
10976.3
10976.9
10980.6
10980
5824.67
7457.43
7457.58
7459.15
7457.32
10981.8
10981.1
10981.4
5821.38
5830.11
3102.67
3098.18
2579.2
2590.72
2621.96
2616.8
2546.72
2546.48
2546.48
2546.48
2546.48
2546.48
2546.59
2840.92
2842.3
4523.41
4545.96
4523.93
3562.27
3575.4
6607.73
6613.23
6608.05
6613.57
19152
13969.7
19152.3
19152.1
19152
19152.3
19152.6
19153
19153.1
19152.5
19155.1
19155.7
19156
19153.1
19156
19153.3
19153.6
19154.3
6613.2
6608.01
6611.53
6608.99
3571.21
3573.02
4526.76
4542.7
4530.01
2841.26
2841.89
2546.6
2546.48
2546.48
2546.48
2546.48
2546.48
2595.03
2595.03
3508.77
3508.97
5118.6
5118.6
5118.62
12886.1
12886
12886
12886
12886
12885.9
12886.1
4186.27
12886.1
12886.3
12886
12885.6
12885.7
12885.7
12885.9
12885.6
12886.1
12886
5118.6
5118.62
5118.6
3508.85
3508.93
2595.03
2595.03
2546.48
2546.48
2546.48
2546.48
2546.48
2546.75
2683.15
2683.15
2970.35
2970.35
4246.51
4246.58
4246.54
10088.9
10088.9
10088.9
10088.9
10088.8
10088.9
2547.75
10088.9
10088.9
10088.9
10088.9
10088.9
10088.9
10088.8
10088.9
4246.54
4246.54
4246.51
2683.15
2683.16
2970.35
2970.37
2546.75
2546.48
2546.48
2546.48
2546.48
2568.2
2568.2
3637.24
3637.19
8376.22
8376.2
8376.19
8376.19
8376.23
2546.48
8376.22
8376.23
8376.19
8376.19
8376.2
3637.19
3637.24
2568.2
2568.2
2546.48
2546.48
2546.56
3197.64
3197.64
7164.67
7164.75
7164.75
7164.71
2546.48
7164.67
7164.71
7164.75
7164.75
3197.64
3197.64
2546.56
2546.48
2546.48
2895.59
2895.59
6271.62
6271.62
6271.66
6271.65
5583.39
5583.34
5583.38
2546.48
6271.66
6271.62
6271.65
6271.62
5583.38
5583.39
5583.34
2895.59
2895.59
2546.48
2705.27
2705.27
5018.01
5017.98
5017.99
2546.48
5018.01
5017.98
5017.99
2705.27
2705.27
5092.96
5121.61
5144.71
5192.65
5699.31
5417.06
6619.08
8378.83
6882.2
7408.51
9000.61
10215
8142.3
10926.2
10369.9
7640.06
5739.28
6028.6
5906.5
10001.2
14084.1
8353.6
8484.67
7284.18
12463.5
8906.95
6720.74
6732.63
6353.28
5971.74
6496.14
5709.72
5289.31
5153.75
5151.82
5144.95
5117.07
2560.86
2639.32
2720.41
2752.48
2787.48
2818.91
2670.92
2742.38
2789.39
2838.04
3936.92
3493.16
3054.63
4765.47
3819.69
3657.35
4485.01
4950.84
7182.84
5391.59
4729.71
6948.76
4703.1
7705.13
13294.4
11582.2
11608.8
7682.01
9232.01
13270.7
10959.8
7002.39
11534.9
13162
11116.6
20132.2
19776.6
19880.3
20754.6
20511.7
20066.5
20114.3
13753.4
13900.4
13334.3
11413
19982.7
20148.6
11293.7
13251.7
20120
11500.9
20004.2
13714.1
20075.3
19856
19876.2
19825.1
20131
13386.2
11462.2
6972.86
7156.04
10925.2
10709
7074.81
11799.7
10514.5
7677.76
7649.45
4018.39
5109.98
4862.94
6040.09
6576.29
4463.62
3743.23
4008.56
3769.06
3879.29
3083.84
3513.05
3118.91
3418.92
2893.01
2736.82
3001.17
2826.96
2814.49
2746.18
2683.71
2604.96
2569.12
2627.49
2638.32
2625.62
2801.3
2814.43
2907.44
2999.14
3010.84
3239.56
4176.53
5004.87
5016.74
3788.48
5970.35
4483.83
4474.39
7570.31
7525.48
5834.55
5986.55
7552.37
7515.05
7498.5
10889.4
10953.5
7506.87
5896.61
5866.1
4983.65
4987.04
4502.43
5069.18
3192.66
2983.84
2933.54
2831.85
2665.76
2734.34
2665.37
2657.73
2755.65
2668.77
2632.99
2599.57
2707.05
2630.23
2803.25
2717.99
2898.19
4127.2
4234.87
4245.5
4040.19
4166.59
2915.25
2819.97
2836.34
2703.26
2578.61
2599.76
2605.82
2821.77
2896.56
4180.46
4444.79
4928.06
4937.2
4462.5
4924.12
4951.48
2825.66
2892.36
2587.88
2591.95
2620.67
3103.57
5822.66
5820.31
10977.9
10978.3
7454.23
7453.39
7455.65
10977.2
10979.6
10978.8
10982.4
10982.4
10982.5
10982.3
10982.1
7458.29
7457.52
7458.9
5823.41
5832.22
3100.37
2581.09
2615.59
2546.6
2842.19
3578.41
4489.18
4546.56
6606.89
6614.46
6615.62
19153.6
19153.1
19155.9
19155.4
19156.3
19154.9
19154.2
19152.8
19155.8
19156.6
19156
19156.2
19156.6
19156.7
19156
6610.04
6610.43
6608.88
4540.32
4530.48
3568.62
2841.7
2546.59
2595.03
3508.97
5118.62
5118.6
12885.7
12886
12885.6
12885.7
12885.7
12886
12886.1
12885.9
12885.3
12885.4
12885.5
12885.4
12885.3
12885.3
12885.4
5118.62
5118.6
3508.93
2595.03
2546.74
2970.37
2683.15
4246.54
4246.58
10088.9
10088.9
10088.9
10088.9
10088.8
10088.9
10088.9
10088.9
10088.9
10088.9
10088.9
10088.9
10088.9
10088.8
10088.9
4246.54
4246.54
2683.15
2970.35
2546.74
2568.2
3637.2
3637.19
8376.19
8376.22
8376.19
8376.23
8376.22
8376.22
8376.23
8376.22
8376.19
8376.19
3637.19
3637.2
2568.2
2546.56
3197.64
7164.71
7164.75
7164.67
7164.64
7164.64
7164.75
7164.71
7164.67
3197.64
2546.56
2895.59
6271.62
6271.65
6271.62
5583.34
5583.38
5583.38
5583.38
5583.38
5583.34
6271.65
6271.62
6271.62
2895.59
2705.27
5017.98
5017.99
5017.99
5017.98
2705.27
5110.73
5124.19
5157.63
5137.15
5210.43
5988.63
5379.47
5710.67
7273.15
9767.7
8882.67
8696.72
9626.95
8331.11
9873.96
10397.3
9270.22
9414.21
11659
10445.9
8119.89
7771.91
11641
10566.8
12829.7
9895.84
9216.58
10656.9
8374.86
7498.36
8306.9
7486.27
6849.72
7441.47
5275.09
5232.37
5196.88
5168.31
5123.75
5108.65
2602.89
2610.37
2631.93
2629.32
2680.34
2688.22
2783.73
3152.43
2856.23
3184.73
3056.51
3299.85
3592.63
4450.2
3666.62
3859.12
3806.18
4737.26
5296.52
3782.96
8134.87
4799.19
6893.3
7205.98
7025.08
10191.1
10590.1
13001.7
7028.17
6960.12
12306.3
11500.3
7682.39
13284.4
7714.03
6061.35
13411.8
13481.8
10931.9
11848
13299.9
10765
7054.94
7005.41
11835.3
7672.61
7686.93
4743.75
8740.22
7071.87
5618.17
7160.5
3634.13
4784.95
4603.72
5762.95
3720.63
3706.05
3458.23
3312.07
3110.58
3178.01
2885.45
2870.86
2763.88
2746.49
2687.2
2727.93
2673.57
2659.47
2647.64
2594.31
2617.24
2619.22
2673.1
2697.48
2694.08
2656.12
2731.24
2899.56
2743.44
2688.69
3196.47
3131.43
3039.47
4550.69
4542.44
4272.39
4229.95
4919.17
4945.54
5933.23
4969.02
5916.99
5847.4
7700.37
5851.04
4982.22
7516.61
5869.66
4970.17
5951.1
5917.89
5000.73
4972.95
4969.15
4274.36
4441.74
3773.88
3792.34
3175.48
4544.91
4219.39
3187.16
2998.38
2748.01
2637.91
2694.27
2623.3
2672.24
2642.4
2624.75
2546.48
2546.48
2546.54
2598.58
2656.04
2661.33
2864.82
4229.72
4089.41
4135.61
4225.17
4234.43