# vtk DataFile Version 3.0
Happy Go Lucky
ASCII
DATASET POLYDATA
POINTS 3856 float
0 -0.0989799 -1
-0.18024 -0.481662 -0.906127
0 -0.481662 -0.923879
0.18024 -0.481662 -0.906127
-0.37533 -0.29407 -0.906127
-0.191341 -0.29407 -0.961939
0 -0.29407 -0.980785
0.191342 -0.29407 -0.96194
0.37533 -0.29407 -0.906127
-0.382683 -0.0989799 -0.923879
-0.19509 -0.0989799 -0.980784
0 -0.0989799 -0.9
0.19509 -0.0989799 -0.980785
0.382683 -0.0989799 -0.923879
-0.37533 0.0961097 -0.906127
-0.191341 0.0961097 -0.961939
0 0.0961097 -0.980785
0.191342 0.0961097 -0.96194
0.37533 0.0961097 -0.906127
-0.18024 0.283704 -0.906127
0 0.283704 -0.923879
0.18024 0.283704 -0.906127
-0.162211 -0.654552 -0.815493
0 -0.654552 -0.83147
0.162212 -0.654552 -0.815493
-0.353553 -0.481662 -0.853553
-0.162216 -0.443394 -0.815514
0 -0.443394 -0.831491
0.162216 -0.443394 -0.815515
0.353553 -0.481662 -0.853553
-0.544895 -0.29407 -0.815493
-0.337797 -0.274561 -0.815514
-0.172207 -0.274561 -0.865745
0 -0.274561 -0.882707
0.172208 -0.274561 -0.865746
0.337797 -0.274561 -0.815515
0.544895 -0.29407 -0.815493
-0.555569 -0.0989799 -0.831469
-0.344414 -0.0989799 -0.831491
-0.175581 -0.0989799 -0.882706
0 -0.0989799 -0.8
0.175581 -0.0989799 -0.882707
0.344415 -0.0989799 -0.831492
0.55557 -0.0989799 -0.831469
-0.544895 0.0961097 -0.815493
-0.337797 0.0766009 -0.815514
-0.172207 0.0766009 -0.865745
0 0.0766009 -0.882707
0.172208 0.0766009 -0.865746
0.337797 0.0766009 -0.815515
0.544895 0.0961097 -0.815493
-0.353553 0.283704 -0.853553
-0.162216 0.245436 -0.815514
0 0.245436 -0.831491
0.162216 0.245436 -0.815515
0.353553 0.283704 -0.853553
-0.162211 0.456589 -0.815493
0 0.456589 -0.83147
0.162212 0.456589 -0.815493
0 -0.806089 -0.707107
-0.318189 -0.654552 -0.768177
0.31819 -0.654552 -0.768178
-0.14599 -0.598995 -0.733943
0 -0.598995 -0.748323
0.145991 -0.598995 -0.733944
-0.51328 -0.481662 -0.768177
-0.318198 -0.443394 -0.768198
-0.144192 -0.405126 -0.724902
0 -0.405126 -0.739103
0.144192 -0.405126 -0.724902
0.318198 -0.443394 -0.768198
0.51328 -0.481662 -0.768178
-0.490405 -0.274561 -0.733944
-0.300264 -0.255052 -0.724902
-0.153073 -0.255052 -0.769551
0 -0.255052 -0.784628
0.153073 -0.255052 -0.769552
0.300264 -0.255052 -0.724902
0.490406 -0.274561 -0.733944
-0.707106 -0.0989799 -0.707106
-0.500012 -0.0989799 -0.748322
-0.306146 -0.0989799 -0.739103
-0.156072 -0.0989799 -0.784627
0 -0.0989799 -0.7
0.156072 -0.0989799 -0.784628
0.306147 -0.0989799 -0.739104
0.500013 -0.0989799 -0.748323
0.707107 -0.0989799 -0.707107
-0.490405 0.0766009 -0.733944
-0.300264 0.057092 -0.724902
-0.153073 0.057092 -0.769551
0 0.057092 -0.784628
0.153073 0.057092 -0.769552
0.300264 0.057092 -0.724902
0.490406 0.0766009 -0.733944
-0.51328 0.283704 -0.768177
-0.318198 0.245436 -0.768198
-0.144192 0.207167 -0.724902
0 0.207167 -0.739103
0.144192 0.207167 -0.724902
0.318198 0.245436 -0.768198
0.51328 0.283704 -0.768178
-0.318189 0.456589 -0.768177
-0.14599 0.401034 -0.733943
0 0.401034 -0.748323
0.145991 0.401034 -0.733944
0.31819 0.456589 -0.768178
0 0.608125 -0.707107
-0.270598 -0.806089 -0.653281
-0.13795 -0.806089 -0.69352
0.13795 -0.806089 -0.69352
0.270598 -0.806089 -0.653281
-0.124155 -0.735378 -0.624168
0 -0.735378 -0.636396
0.124155 -0.735378 -0.624168
-0.461939 -0.654552 -0.691341
0.46194 -0.654552 -0.691342
-0.415745 -0.598995 -0.622207
-0.28637 -0.598995 -0.69136
-0.254551 -0.543436 -0.614542
-0.129769 -0.543436 -0.652394
0 -0.543436 -0.665176
0.129769 -0.543436 -0.652394
0.286371 -0.598995 -0.69136
0.254552 -0.543436 -0.614542
0.415746 -0.598995 -0.622207
-0.653281 -0.481662 -0.653281
-0.461952 -0.443394 -0.69136
-0.410624 -0.405126 -0.614542
-0.282843 -0.405126 -0.682842
0.282843 -0.405126 -0.682843
0.461952 -0.443394 -0.69136
0.410624 -0.405126 -0.614542
0.653281 -0.481662 -0.653281
-0.247487 -0.366857 -0.597487
-0.126168 -0.366857 -0.634289
0 -0.366857 -0.646715
0.126168 -0.366857 -0.634289
0.247487 -0.366857 -0.597487
-0.693519 -0.29407 -0.69352
-0.624167 -0.274561 -0.624168
-0.435916 -0.255052 -0.652394
-0.262731 -0.235543 -0.634289
-0.133939 -0.235543 -0.673357
0 -0.235543 -0.68655
0.133939 -0.235543 -0.673358
0.262731 -0.235543 -0.634289
0.435916 -0.255052 -0.652394
0.624168 -0.274561 -0.624168
0.69352 -0.29407 -0.69352
-0.636395 -0.0989799 -0.636396
-0.444455 -0.0989799 -0.665175
-0.267878 -0.0989799 -0.646715
-0.136563 -0.0989799 -0.686549
0 -0.0989799 -0.6
0.136563 -0.0989799 -0.68655
0.267878 -0.0989799 -0.646716
0.444456 -0.0989799 -0.665176
0.636396 -0.0989799 -0.636396
-0.624167 0.0766009 -0.624168
-0.693519 0.0961097 -0.69352
-0.435916 0.057092 -0.652394
-0.262731 0.0375831 -0.634289
-0.133939 0.0375831 -0.673357
0 0.0375831 -0.68655
0.133939 0.0375831 -0.673358
0.262731 0.0375831 -0.634289
0.435916 0.057092 -0.652394
0.624168 0.0766009 -0.624168
0.69352 0.0961097 -0.69352
-0.247487 0.168898 -0.597487
-0.126168 0.168898 -0.634289
0 0.168898 -0.646715
0.126168 0.168898 -0.634289
0.247487 0.168898 -0.597487
-0.653281 0.283704 -0.653281
-0.410624 0.207167 -0.614542
-0.461952 0.245436 -0.69136
-0.282843 0.207167 -0.682842
0.282843 0.207167 -0.682843
0.410624 0.207167 -0.614542
0.461952 0.245436 -0.69136
0.653281 0.283704 -0.653281
-0.254551 0.345477 -0.614542
-0.129769 0.345477 -0.652394
0 0.345477 -0.665176
0.129769 0.345477 -0.652394
0.254552 0.345477 -0.614542
-0.415745 0.401034 -0.622207
-0.461939 0.456589 -0.691341
-0.28637 0.401034 -0.69136
0.286371 0.401034 -0.69136
0.415746 0.401034 -0.622207
0.46194 0.456589 -0.691342
-0.124155 0.537414 -0.624168
0 0.537414 -0.636396
0.124155 0.537414 -0.624168
-0.270598 0.608125 -0.653281
-0.13795 0.608125 -0.69352
0.13795 0.608125 -0.69352
0.270598 0.608125 -0.653281
-0.212607 -0.930452 -0.513279
-0.108386 -0.930452 -0.544895
0 -0.930452 -0.55557
0.108386 -0.930452 -0.544895
0.212608 -0.930452 -0.51328
-0.5 -0.806089 -0.5
-0.392847 -0.806089 -0.587938
0 -0.847305 -0.500013
0.392847 -0.806089 -0.587938
0.5 -0.806089 -0.5
-0.353563 -0.735378 -0.529144
-0.243538 -0.735378 -0.587953
0.243538 -0.735378 -0.587953
0.353563 -0.735378 -0.529144
-0.587937 -0.654552 -0.587938
-0.216478 -0.664667 -0.522625
-0.11036 -0.664667 -0.554816
0 -0.664667 -0.565685
0.11036 -0.664667 -0.554816
0.216478 -0.664667 -0.522625
0.587938 -0.654552 -0.587938
-0.529144 -0.598995 -0.529144
-0.369551 -0.543436 -0.553073
0.369552 -0.543436 -0.553073
0.529144 -0.598995 -0.529144
-0.768177 -0.481662 -0.51328
-0.587953 -0.443394 -0.587953
-0.522625 -0.405126 -0.522625
-0.222732 -0.487878 -0.537724
-0.113548 -0.487878 -0.570845
0 -0.487878 -0.582029
0 -0.432321 -0.498882
0.113548 -0.487878 -0.570845
0.222733 -0.487878 -0.537724
0.587953 -0.443394 -0.587953
0.522625 -0.405126 -0.522625
0.768178 -0.481662 -0.51328
-0.359296 -0.366857 -0.537724
-0.212132 -0.328589 -0.512132
-0.108144 -0.328589 -0.543676
-1.17828e-23 -0.328589 -0.554327
0.108144 -0.328589 -0.543676
0.212132 -0.328589 -0.512132
0.359296 -0.366857 -0.537724
-0.815493 -0.29407 -0.544895
-0.554815 -0.255052 -0.554816
-0.381426 -0.235543 -0.570845
-0.225198 -0.216034 -0.543676
-0.114805 -0.216034 -0.577164
0 -0.216034 -0.588471
0.114805 -0.216034 -0.577164
0.225198 -0.216034 -0.543676
0.381427 -0.235543 -0.570845
0.554816 -0.255052 -0.554816
0.815493 -0.29407 -0.544895
-0.831468 -0.0989799 -0.55557
-0.748322 -0.0989799 -0.500013
-0.565685 -0.0989799 -0.565685
-0.333342 -0.0989799 -0.498881
-0.388898 -0.0989799 -0.582028
-0.22961 -0.0989799 -0.554327
-0.117054 -0.0989799 -0.588471
-6.60536e-11 -0.0989799 -0.5
0.117054 -0.0989799 -0.588471
0.22961 -0.0989799 -0.554328
0.388899 -0.0989799 -0.582029
0.333342 -0.0989799 -0.498882
0.565685 -0.0989799 -0.565685
0.748323 -0.0989799 -0.500013
0.83147 -0.0989799 -0.55557
-0.815493 0.0961097 -0.544895
-0.554815 0.057092 -0.554816
-0.381426 0.0375831 -0.570845
-0.225198 0.0180741 -0.543676
-0.114805 0.0180741 -0.577164
0 0.0180741 -0.588471
0.114805 0.0180741 -0.577164
0.225198 0.0180741 -0.543676
0.381427 0.0375831 -0.570845
0.554816 0.057092 -0.554816
0.815493 0.0961097 -0.544895
-0.359296 0.168898 -0.537724
-0.212132 0.13063 -0.512132
-0.108144 0.13063 -0.543676
-3.18446e-23 0.13063 -0.554327
0.108144 0.13063 -0.543676
0.212132 0.13063 -0.512132
0.359296 0.168898 -0.537724
-0.768177 0.283704 -0.51328
-0.522625 0.207167 -0.522625
-0.587953 0.245436 -0.587953
-0.222732 0.28992 -0.537724
-0.113548 0.28992 -0.570845
0 0.234363 -0.498882
0 0.28992 -0.582029
0.113548 0.28992 -0.570845
0.222733 0.28992 -0.537724
0.522625 0.207167 -0.522625
0.587953 0.245436 -0.587953
0.768178 0.283704 -0.51328
-0.369551 0.345477 -0.553073
0.369552 0.345477 -0.553073
-0.529144 0.401034 -0.529144
-0.587937 0.456589 -0.587938
-0.216478 0.466704 -0.522625
-0.11036 0.466704 -0.554816
0 0.466704 -0.565685
0.11036 0.466704 -0.554816
0.216478 0.466704 -0.522625
0.529144 0.401034 -0.529144
0.587938 0.456589 -0.587938
-0.353563 0.537414 -0.529144
-0.243538 0.537414 -0.587953
0.243538 0.537414 -0.587953
0.353563 0.537414 -0.529144
-0.5 0.608125 -0.5
-0.392847 0.608125 -0.587938
0 0.649341 -0.500013
0.392847 0.608125 -0.587938
0.5 0.608125 -0.5
-0.212607 0.732488 -0.513279
-0.108386 0.732488 -0.544895
0 0.732488 -0.55557
0.108386 0.732488 -0.544895
0.212608 0.732488 -0.51328
-0.085571 -1.00449 -0.430862
0.0854912 -1.00454 -0.43078
-0.308658 -0.930452 -0.461939
0.308658 -0.930452 -0.46194
-0.277792 -0.847305 -0.415746
-0.191346 -0.847305 -0.461952
-0.097547 -0.847305 -0.490405
0.097548 -0.847305 -0.490406
0.191347 -0.847305 -0.461952
0.277792 -0.847305 -0.415746
-0.45 -0.735378 -0.45
-0.170086 -0.764158 -0.410624
0 -0.764158 -0.444456
-0.086709 -0.764158 -0.435916
0.086709 -0.764158 -0.435916
0.170086 -0.764158 -0.410624
0.45 -0.735378 -0.45
-0.691341 -0.654552 -0.46194
-0.4 -0.664667 -0.4
-0.314278 -0.664667 -0.47035
0.4 -0.664667 -0.4
0.314278 -0.664667 -0.47035
0.691342 -0.654552 -0.46194
-0.622207 -0.598995 -0.415746
-0.47035 -0.543436 -0.47035
-0.274993 -0.593957 -0.411556
-0.189419 -0.593957 -0.457297
-0.096565 -0.593957 -0.485464
0 -0.593957 -0.494975
-0.08277 -0.523244 -0.416112
[...]
POINT_DATA 3856
SCALARS scalar float
LOOKUP_TABLE default
2546.48
2546.48
2546.48
2546.48
2546.48
2546.48
2546.48
2546.48
2546.48
2546.48
2546.48
2546.48
2546.48
2546.48
2546.48
2546.48
2546.48
2546.48
2546.48
2546.48
2546.48
2546.48
2546.48
2546.48
2546.48
2546.48
2546.48
2546.48
2546.48
2546.48
2546.48
2546.48
2546.48
2546.48
2546.48
2546.48
2546.48
2546.48
2546.48
2546.48
2546.48
2546.48
2546.48
2546.48
2546.48
2546.48
2546.48
2546.48
2546.48
2546.48
2546.48
2546.48
2546.48
2546.48
2546.48
2546.48
2546.48
2546.48
2546.48
2546.48
2546.48
2546.48
2546.48
2546.48
2546.48
2546.48
2546.48
2546.48
2546.48
2546.48
2546.48
2546.48
2546.48
2546.48
2546.48
2546.48
2546.48
2546.48
2546.48
2546.48
2546.48
2546.48
2546.48
2546.48
2546.48
2546.48
2546.48
2546.48
2546.48
2546.48
2546.48
2546.48
2546.48
2546.48
2546.48
2546.48
2546.48
2546.48
2546.48
2546.48
2546.48
2546.48
2546.48
2546.48
2546.48
2546.48
2546.48
2546.48
2546.48
2546.48
2546.48
2546.48
2546.48
2546.48
2546.48
2546.48
2546.48
2546.48
2546.48
2546.48
2546.48
2546.48
2546.48
2546.48
2546.48
2546.48
2546.48
2546.48
2546.48
2546.48
2546.48
2546.48
2546.48
2546.48
2546.48
2546.48
2546.48
2546.48
2546.48
2546.48
2546.48
2546.48
2546.48
2546.48
2546.48
2546.48
2546.48
2546.48
2546.48
2546.48
2546.48
2546.48
2546.48
2546.48
2546.48
2546.48
2546.48
2546.48
2546.48
2546.48
2546.48
2546.48
2546.48
2546.48
2546.48
2546.48
2546.48
2546.48
2546.48
2546.48
2546.48
2546.48
2546.48
2546.48
2546.48
2546.48
2546.48
2546.48
2546.48
2546.48
2546.48
2546.48
2546.48
2546.48
2546.48
2546.48
2546.48
2546.48
2546.48
2546.48
2546.48
2546.48
2546.48
2546.48
2546.48
2546.48
2546.48
2546.48
2546.48
2546.48
2546.48
2546.48
2546.48
2546.48
2546.48
2546.48
2546.48
2546.48
2546.56
2546.48
2546.48
2546.48
2546.48
2546.48
2546.48
2546.48
2546.48
2546.48
2546.48
2546.48
2546.48
2546.48
2546.48
2546.48
2546.48
2546.48
2546.48
2546.48
2546.48
2546.48
2546.48
2546.48
2546.59
2546.48
2546.48
2546.48
2546.48
2546.48
2546.48
2546.48
2546.48
2546.48
2546.48
2546.48
2546.48
2546.48
2546.48
2546.48
2546.48
2546.48
2546.48
2546.48
2546.48
2546.48
2546.48
2546.48
2546.48
2546.48
2546.48
2546.48
2546.48
2546.48
2546.48
2546.64
2546.48
2546.48
2546.48
2546.48
2546.48
2546.48
2546.48
2546.48
2546.48
2546.48
2546.48
2546.48
2546.48
2546.48
2546.48
2546.48
2546.48
2546.48
2546.48
2546.48
2546.48
2546.48
2546.48
2546.48
2546.48
2546.48
2546.48
2546.48
2546.48
2546.48
2546.59
2546.48
2546.48
2546.48
2546.48
2546.48
2546.48
2546.48
2546.48
2546.48
2546.48
2546.48
2546.48
2546.48
2546.48
2546.48
2546.48
2546.48
2546.48
2546.48
2546.48
2546.48
2546.48
2546.48
2546.56
2546.48
2546.48
2546.48
2546.48
2546.48
2546.48
2546.48
5095.73
5095.7
2546.48
2546.48
2546.56
2546.56
2546.56
2546.56
2546.56
2546.56
2546.48
2568.2
2568.2
2568.2
2568.2
2568.2
2546.48
2546.48
2546.48
2546.48
2546.48
2546.48
2546.48
2546.48
2546.48
2546.75
2546.75
2546.74
2546.74
2595.03
2595.03
2546.74
2595.03
2546.75
2546.75
2546.48
2546.48
2546.48
2546.48
2546.48
2546.48
2546.59
2546.59
2546.59
2546.59
2546.59
2546.59
2546.48
2546.48
2546.48
2546.48
2546.48
2546.48
2611.07
2611.07
2611.07
2546.48
2546.48
2546.48
2546.48
2546.48
2546.48
2546.48
2555.14
2555.14
2555.14
2555.14
2555.14
2546.48
2546.48
2546.48
2546.48
2546.48
2547.15
2547.15
2547.15
2547.15
2547.15
2547.15
2547.15
2546.48
2546.48
2546.48
2546.64
2547.15
2546.64
2546.64
2547.15
2547.15
2751.39
2547.15
2546.64
2547.15
2547.15
2546.64
2547.15
2546.64
2546.48
2546.48
2546.48
2546.48
2546.48
2546.48
2546.48
2546.48
2555.14
2555.14
2555.14
2555.14
2555.14
2546.48
2546.48
2546.48
2546.48
2546.48
2546.48
2546.48
2611.07
2611.07
2611.07
2546.48
2546.48
2546.48
2546.48
2546.48
2546.48
2546.59
2546.59
2546.59
2546.59
2546.59
2546.59
2546.48
2546.48
2546.48
2546.48
2546.48
2546.75
2546.75
2546.74
2595.03
2546.74
2595.03
2595.03
2546.74
2546.75
2546.75
2546.48
2546.48
2546.48
2546.48
2546.48
2546.48
2546.48
2546.48
2546.48
2546.48
2568.2
2568.2
2568.2
2568.2
2568.2
2546.48
2546.56
2546.56
2546.56
2546.56
2546.56
2546.56
2546.48
2546.48
5103.89
5109.87
5422.29
5111.91
5423.21
5109.62
5103.62
2546.48
2546.48
2898.51
2893.62
2896.92
2893.6
2898.52
2546.48
2546.48
2546.48
2546.56
3197.64
3197.64
3197.64
2546.56
2546.48
2546.48
2568.2
2568.2
2568.2
2568.2
2546.48
2546.48
2546.48
2683.15
2683.15
2683.15
2683.16
2683.15
2683.14
2683.15
2546.48
2546.48
2546.48
2546.74
2595.03
2595.03
2970.36
2595.04
2970.37
2970.35
2970.35
2970.36
2595.04
2595.03
2595.03
2546.74
2546.48
2546.48
2546.48
2546.48
2546.59
2841.03
2841.03
2841.04
2841.04
2841.03
2546.59
2546.48
2546.48
2546.48
2546.48
2546.48
2546.48
2611.07
2611.07
3078.29
3078.28
3078.27
3078.28
2611.07
3078.29
2611.07
2546.48
2546.48
2546.48
2546.48
2546.48
2546.48
2546.48
2546.48
2555.14
2862.05
2555.14
2862.05
2862.05
2862.05
2862.05
2862.05
2862.05
2555.14
2555.14
2546.48
2546.48
2546.48
2546.48
2546.48
2547.15
2774.38
2774.38
2774.38
2774.37
2774.38
2774.38
2774.38
2547.15
2546.48
2546.48
2546.48
2546.48
2546.48
2546.64
2547.15
2751.4
2774.38
2751.39
2774.38
2751.39
4074.33
2774.38
2774.37
2751.4
2774.38
2751.39
2774.38
2751.39
2774.38
2546.64
2547.15
2546.48
2546.48
2546.48
2546.48
2546.48
2546.48
2546.48
2546.48
2546.48
2546.48
2555.14
2555.14
2862.05
2862.05
2862.05
2862.05
2862.05
2862.05
2555.14
2862.05
2555.14
2546.48
2546.48
2546.48
2546.48
2546.48
2546.48
2546.48
2546.48
2611.07
3078.29
2611.07
3078.27
3078.26
3078.27
3078.29
2611.07
2611.07
2546.48
2546.48
2546.48
2546.48
2546.48
2546.48
2546.59
2841.03
2841.04
2841.03
2841.04
2841.03
2546.59
2546.48
2546.48
2546.48
2546.48
2595.03
2546.74
2595.03
2595.04
2595.04
2595.03
2595.03
2546.74
2546.48
2546.48
2546.48
2683.15
2970.36
2683.15
2970.37
2970.35
2683.15
2683.16
2970.35
2683.15
2970.36
2683.14
2683.15
2546.48
2546.48
2546.48
2568.2
2568.2
2568.2
2568.2
2546.48
2546.48
2546.56
3197.64
3197.64
3197.64
2546.56
2546.48
2546.48
2546.48
2895.59
2895.59
2895.59
2895.59
2895.59
2546.48
2546.48
2705.27
2705.28
2705.27
2705.27
2705.27
2705.27
2705.27
5103.89
5311.57
5098.44
5449.98
5449.81
5098.22
5311.43
5103.62
2546.48
2897.03
2898.32
2898.34
2897.04
2546.48
2546.48
2546.56
3197.63
3197.64
3197.62
3197.64
3197.62
3197.63
2546.56
2546.48
2546.48
2568.2
3637.22
3637.2
3637.19
3637.24
3637.19
3637.2
3637.22
2568.2
2546.48
2546.48
2683.15
2683.15
4246.58
4246.54
4246.51
4246.54
4246.54
2683.15
2683.15
2546.48
2546.48
2546.48
2546.75
2595.03
2970.36
3508.85
2970.35
3508.89
3508.86
3508.86
3508.87
3508.85
2970.37
3508.84
3508.85
3508.86
2970.36
2595.03
2546.75
2546.48
2546.48
2546.48
2546.48
2546.59
2841.03
2841.04
2841.03
4523.02
4523
4523.02
4523.02
4523.05
2841.03
2841.03
2841.04
2546.59
2546.48
2546.48
2546.48
2546.48
2611.07
3554
2611.07
3078.29
3078.28
3553.98
3553.99
3554
3553.98
5787.09
5787.07
5787.05
3554
5787.1
5787.08
3078.28
3554
3553.99
3553.98
2611.07
3078.27
2611.07
2546.48
2546.48
2546.48
2546.48
2555.14
2862.05
2862.05
4401.59
4899.91
4899.96
4401.58
4401.57
4899.94
4899.94
4401.57
4401.57
4899.95
4899.94
4401.58
4899.96
4401.57
4401.57
4401.59
2862.05
2862.05
2555.14
2546.48
2546.48
2547.15
2774.38
2774.38
4150.15
4150.16
4150.16
4150.16
4150.15
4150.15
4150.16
4150.15
2774.38
4150.17
2774.38
2547.15
2546.48
2546.48
2546.48
2546.64
2547.15
2774.38
2751.39
2774.38
2751.4
4074.31
4150.15
4074.32
4074.32
4150.16
4150.16
4074.33
4150.15
4150.15
4074.32
4150.15
4074.32
4074.32
4150.16
4150.15
2774.38
4074.32
2751.39
4150.17
2774.38
2751.39
2547.15
2546.64
2546.48
2546.48
2546.48
2546.48
2546.48
2555.14
2862.05
2862.05
4401.59
4899.96
4899.91
4401.58
4401.57
4899.94
4899.94
4401.57
4401.57
4899.95
4899.93
4401.58
4401.59
4401.57
4401.57
4899.96
2862.05
2862.05
2555.14
2546.48
2546.48
2546.48
2546.48
2611.07
3078.29
2611.07
3553.99
3078.28
3553.97
3553.98
5787.05
5787.08
5787.07
3553.99
3553.97
5787.09
5787.08
3553.99
3078.28
3553.98
3553.97
3553.99
2611.07
3078.27
2611.07
2546.48
2546.48
2546.48
2546.48
2546.59
2841.03
2841.04
2841.03
4523.01
4523.01
4523
4523.01
4523.04
2841.03
2841.03
2841.04
2546.59
2546.48
2546.48
2546.48
2546.75
2595.03
3508.85
3508.89
3508.86
3508.86
3508.87
3508.85
3508.85
3508.86
3508.84
2595.03
2546.75
2546.48
2546.48
2546.48
2683.15
2970.36
2683.15
2970.35
4246.58
4246.54
4246.51
4246.54
4246.54
2970.37
2970.36
2683.15
2683.15
2546.48
2546.48
2546.48
2568.2
3637.22
3637.2
3637.24
3637.19
3637.19
3637.2
3637.22
2568.2
2546.48
2546.48
2546.56
3197.62
3197.63
3197.62
3197.63
3197.62
3197.62
2546.56
2546.48
2546.48
2895.6
2895.59
2895.59
2895.59
2546.48
2705.28
2705.26
5018.01
2705.27
2705.27
5109.86
5529.68
5526.76
5792.52
5528.91
5534.27
5109.61
2546.48
2898.51
2898.32
5647.48
5634.65
5648.23
5634.77
5639.87
5494.57
5647.42
5639.02
5634.97
5648.81
5634.14
2898.34
2898.52
2546.48
2546.48
2546.56
2546.56
3197.64
3197.62
6272.75
6273.43
6273.59
6273.92
6278.66
6273.64
6273.42
6273.97
6272.77
3197.64
3197.62
2546.56
2546.56
2546.48
2546.48
2568.2
3637.22
3637.2
3637.17
7164.64
7164.75
7164.67
7164.71
7164.75
7164.64
7164.71
7164.67
7164.75
3637.17
3637.2
3637.22
2568.2
2546.48
2546.48
2546.48
2683.15
4246.54
4246.54
4246.49
8376.22
8376.19
8376.19
8376.2
8376.22
8376.2
8376.19
4246.56
4246.54
4246.54
2683.14
2546.48
2546.48
2546.48
2546.48
2546.74
2546.75
2970.36
2595.04
2970.37
3508.86
3508.84
5118.58
5118.6
5118.58
10088.9
10088.9
5118.62
5118.6
5118.59
10088.9
5118.6
5118.62
5118.6
5118.58
5118.58
2970.35
3508.85
3508.86
2970.36
2595.04
2546.74
2546.75
2546.48
2546.48
2546.48
2546.48
2546.48
2546.48
2546.59
2546.59
2841.03
6600.71
4523.02
4523.02
4522.99
6600.7
6600.69
6600.68
6600.67
6600.67
6600.69
6600.7
6600.71
4523.02
4522.99
4523.02
2841.03
2546.59
2546.59
2546.48
2546.48
2546.48
2546.48
2546.48
2546.48
2611.07
3078.28
3553.99
3553.98
3078.28
7413.98
5787.07
5787.06
5787.07
10934.1
10934.1
10934
10934.1
7414.03
7414.08
7414.03
7414.08
10934.1
10934.1
10934.1
7414.03
7414.07
7414.02
7413.98
5787.06
5787.07
5787.07
3553.98
3553.99
3078.28
2611.07
3078.29
2546.48
2546.48
2546.48
2546.48
2546.48
2546.48
2546.48
2555.14
2862.05
4401.57
4899.96
4899.95
4401.57
4899.99
4899.99
4401.57
4401.56
4899.91
4899.96
2862.05
2555.14
2546.48
2546.48
2546.48
2546.48
2546.48
2547.15
2547.15
2774.38
4150.16
4150.15
4150.13
4150.15
2774.38
2547.15
2547.15
2546.48
2546.48
2546.48
2546.48
2547.15
2547.15
2546.64
2546.64
2774.38
2751.39
4150.16
4150.15
4074.32
4074.32
4150.15
4150.13
4074.32
4074.31
2774.38
2751.39
2547.15
2547.15
2546.64
2546.64
2546.48
2546.48
2546.48
2546.48
2546.48
2546.48
2546.48
2546.48
2546.48
2555.14
2862.05
4401.57
4401.57
4899.96
4899.94
4899.99
4899.99
4401.57
4401.56
4899.96
4899.91
2862.05
2555.14
2546.48
2546.48
2546.48
2546.48
2546.48
2546.48
2546.48
3078.28
2611.07
3078.28
3553.98
3553.97
5787.06
5787.07
5787.07
7413.98
7414.02
7414.08
7414.07
7414.03
10934.1
10934
10934.1
10934.1
7414.03
7414.06
7414.02
10934.1
10934.1
10934.1
5787.07
5787.06
5787.07
7413.98
3078.28
3553.97
3553.98
3078.29
2611.07
2546.48
2546.48
2546.48
2546.48
2546.48
2546.48
2546.59
2546.59
2841.03
4523.01
4522.98
4523.01
6600.71
6600.7
6600.69
6600.67
6600.68
6600.67
6600.69
6600.7
6600.7
4522.98
4523.01
4523.01
2841.03
2546.59
2546.59
2546.48
2546.48
2546.48
2546.48
2546.48
2546.74
2546.75
2595.04
3508.86
3508.84
5118.58
5118.6
5118.58
5118.6
5118.62
5118.59
10088.9
10088.9
5118.62
5118.6
10088.9
5118.58
5118.6
5118.58
3508.85
3508.86
2595.04
2546.74
2546.75
2546.48
2546.48
2546.48
2546.48
2683.15
2970.36
2970.37
4246.49
4246.54
4246.54
8376.22
8376.19
8376.19
8376.2
8376.22
8376.19
8376.19
4246.54
4246.54
4246.56
2970.35
2970.36
2683.14
2546.48
2546.48
2546.48
2546.48
2568.2
3637.2
3637.22
3637.17
7164.64
7164.71
7164.75
7164.75
7164.67
7164.67
7164.75
7164.71
7164.64
3637.17
3637.22
3637.2
2568.2
2546.48
2546.48
2546.56
2546.56
3197.63
3197.62
6271.62
6271.65
6271.62
6271.62
6271.66
6271.65
6271.62
6271.62
6271.62
3197.62
3197.63
2546.56
2546.56
2546.48
2546.48
2895.58
2895.59
5583.42
5583.38
5583.38
5583.4
5583.34
5583.38
5583.36
5583.37
5583.35
5583.37
5583.38
2895.59
2895.59
2546.48
2705.27
5017.98
5017.98
5017.93
5017.98
5017.99
5017.98
5017.99
5017.98
5017.98
5017.93
2705.27
5095.73
5111.91
5422.45
5449.58
5791.23
5147.59
5794.58
5450.76
5423.13
5111.93
5095.7
2546.48
2896.92
2893.62
5640.5
5635.04
5495.04
2668.82
5634.45
5637.74
5493.33
2893.61
2896.92
2546.48
2546.48
2546.56
3197.64
3197.64
6273.57
6273.42
6273.92
6278.63
2685.19
6273.44
6273.67
6273.95
6278.7
3197.64
3197.64
2546.56
2546.48
2546.48
2568.2
2568.2
3637.19
3637.24
7164.67
7164.75
7164.71
7164.75
2601.37
7164.71
7164.75
7164.67
7164.75
3637.19
3637.24
2568.2
2568.2
2546.48
2546.48
2546.48
2683.15
2683.15
4246.54
4246.58
4246.51
8376.19
8376.19
8376.22
8376.2
8376.23
2553.58
8376.22
8376.23
8376.19
8376.19
8376.2
4246.54
4246.54
4246.51
2683.15
2683.16
2546.48
2546.48
2546.48
2546.48
2546.74
2595.03
2595.03
2970.35
2970.35
3508.86
3508.87
10088.9
10088.9
5118.62
5118.6
5118.59
2547.75
10088.9
10088.9
10088.9
10088.8
10088.9
10088.9
10088.9
10088.9
10088.9
10088.8
10088.9
10088.9
5118.59
5118.6
5118.62
3508.85
3508.87
2970.37
2970.35
2595.03
2595.03
2546.75
2546.48
2546.48
2546.48
2546.48
2546.48
2546.48
2546.59
2841.04
2841.03
4523.02
4523.05
4523.02
6600.67
6600.69
6600.7
6600.68
12877.8
12877.7
12877.8
4185.71
12877.8
12877.7
12877.8
12877.8
12877.8
12877.8
12877.8
12877.8
12877.8
12877.7
12877.8
12877.8
12877.7
12877.8
6600.7
6600.69
6600.67
6600.68
4523.05
4523.01
4522.97
2841.04
2841.03
2546.59
2546.48
2546.48
2546.48
2546.48
2546.48
2546.48
2611.07
2611.07
3078.28
3078.27
5787.09
5787.04
5787.06
3554
3553.98
7414.08
7414.08
10934.1
10934.1
10934.1
10934
7414.03
7414.03
19066.6
10934.1
13935.7
19066.6
19066.6
19066.6
19066.6
19066.6
19066.6
19066.6
19066.6
19066.5
19066.6
19066.6
19066.5
19066.5
19066.6
19066.5
10934.1
10934.1
19066.5
7414.03
10934.1
10934.1
10934.1
7414.02
7414.04
7414.07
5787.09
3554
3553.98
5787.09
5787.06
3078.28
3078.27
2611.07
2611.07
2546.48
2546.48
2546.48
2546.48
2546.48
2546.48
2546.48
2555.14
2555.14
2862.05
2862.05
4899.94
4899.94
4401.58
4401.58
4899.94
4899.94
4401.58
4401.57
2862.05
2862.05
2555.14
2555.14
2546.48
2546.48
2546.48
2546.48
2546.48
2547.15
2774.38
2774.37
4150.17
4150.16
4150.15
4150.15
2774.38
2774.37
2547.15
2546.48
2546.48
2546.48
2546.48
2546.48
2546.64
2751.39
2547.15
2751.39
4074.32
2774.38
2774.37
4074.33
4150.16
4150.17
4074.32
4074.33
4150.15
4150.15
2751.39
2751.4
2774.37
2774.38
2547.15
2546.64
2546.48
2546.48
2546.48
2546.48
2546.48
2546.48
2546.48
2546.48
2546.48
2546.48
2555.14
2555.14
2862.05
2862.05
4401.57
4401.58
4899.94
4899.93
4899.94
4899.94
4401.57
4401.57
2862.05
2862.05
2555.14
2555.14
2546.48
2546.48
2546.48
2546.48
2546.48
2546.48
2546.48
2611.07
2611.07
3078.27
3078.26
5787.04
5787.06
5787.09
3553.97
3553.99
10934.1
10934
10934.1
10934
7414.03
7414.07
7414.08
7414.02
10934.1
19066.6
19066.6
19066.6
19066.6
19066.6
19066.6
19066.6
19066.6
19066.6
19066.5
19066.5
19066.5
19066.5
19066.6
19066.5
19066.5
19066.5
10934
10934.1
5787.09
7414.03
7414.04
7414.02
10934.1
10934.1
10934.1
7414.06
3553.97
3553.99
5787.06
5787.08
3078.26
3078.27
2611.07
2611.07
2546.48
2546.48
2546.48
2546.48
2546.48
2546.48
2546.59
2841.04
2841.03
4523.04
4523.01
4523.01
6600.7
6600.68
6600.67
6600.69
12877.8
12877.8
12877.8
12877.8
13935.6
12877.8
12877.7
12877.8
12877.7
12877.8
12877.8
12877.8
12877.7
12877.8
12877.8
12877.7
12877.8
12877.8
6600.69
6600.67
6600.68
6600.7
4522.97
4523.04
4523.01
2841.04
2841.03
2546.59
2546.48
2546.48
2546.48
2546.48
2546.48
2595.03
2595.03
2546.75
3508.86
3508.87
5118.59
5118.62
5118.6
10088.9
10088.9
10088.9
10088.9
10088.8
4185.71
10088.9
10088.9
10088.8
10088.9
10088.9
10088.9
10088.9
10088.9
10088.9
5118.6
5118.59
5118.62
3508.87
3508.85
2546.74
2595.03
2595.03
2546.48
2546.48
2546.48
2546.48
2970.35
2683.15
2683.15
2970.35
4246.58
4246.54
4246.51
8376.19
8376.19
8376.22
8376.2
8376.23
2547.75
8376.22
8376.23
8376.2
8376.19
8376.19
4246.54
4246.54
4246.51
2970.35
2970.37
2683.15
2683.16
2546.48
2546.48
2546.48
2546.48
2568.2
2568.2
3637.19
3637.24
7164.71
7164.67
7164.75
7164.75
2546.48
7164.75
7164.67
7164.71
7164.75
3637.24
3637.19
2568.2
2568.2
2546.48
2546.48
2546.56
3197.64
3197.64
6271.65
6271.62
6271.62
6271.66
2546.48
6271.62
6271.62
6271.66
6271.65
3197.64
3197.64
2546.56
2546.48
2546.48
2895.59
2895.59
5583.35
5583.38
5583.39
2546.48
5583.38
5583.39
5583.34
2895.59
2895.59
2546.48
2705.27
2705.27
5018.01
5017.98
5017.99
2546.48
5018.01
5017.99
5017.98
2705.27
2705.27
5092.96
5095.71
5423.37
5449.36
5449.6
5422.06
5095.75
2893.6
5635.27
5639.66
5646.58
5634.65
5648.01
5638.62
2893.61
2546.56
3197.64
6273.98
6273.41
6273.62
6273.63
6273.45
6273.93
3197.64
2546.56
2568.2
3637.2
3637.19
7164.67
7164.71
7164.75
7164.64
7164.64
7164.75
7164.71
7164.67
3637.2
3637.19
2568.2
2683.15
4246.58
4246.54
8376.22
8376.19
8376.19
8376.22
8376.23
8376.22
8376.23
8376.22
8376.19
8376.19
4246.54
4246.54
2683.15
2546.74
2595.03
2970.37
3508.86
10088.9
5118.62
5118.6
10088.9
10088.9
10088.9
10088.8
10088.9
10088.9
10088.9
10088.8
10088.9
10088.9
10088.9
10088.9
10088.9
10088.9
5118.6
5118.62
3508.86
2970.35
2546.74
2595.03
2546.59
2841.04
4523
4523.02
6600.69
6600.67
6600.7
12877.8
12877.7
12877.8
12877.8
12877.7
12877.8
12877.8
12877.8
12877.8
12877.8
12877.8
12877.7
12877.8
12877.8
12877.7
6600.7
6600.67
6600.69
4523.05
4523.01
2841.04
2546.59
2611.07
3078.28
3554
5787.07
5787.08
7414.03
7414.08
7414.08
10934.1
10934
10934.1
10934
10934.1
19066.6
19066.6
19066.6
19066.6
19066.6
19066.6
19066.6
19066.6
10934
19066.6
19066.6
19066.6
19066.6
19066.6
19066.6
19066.6
10934
10934.1
10934.1
10934.1
7414.07
7414.02
7414.03
5787.1
3554
5787.08
3078.28
2611.07
2555.14
2862.05
4899.94
4899.91
4401.58
4899.95
4899.94
4401.58
2862.05
2555.14
2547.15
2774.38
4150.16
4150.15
2774.38
2547.15
2546.64
2547.15
2751.4
2774.38
4074.33
4150.16
4074.33
4150.15
2751.4
2774.38
2546.64
2547.15
2555.14
2862.05
4401.58
4899.94
4899.91
4401.58
4899.95
4899.94
2862.05
2555.14
2611.07
3078.27
3553.99
5787.07
5787.08
10934
10934
10934.1
7414.07
7414.02
7414.08
19066.6
19066.6
19066.6
19066.6
19066.6
19066.6
10934.1
10934
19066.6
19066.6
19066.6
19066.6
19066.6
19066.6
19066.6
19066.6
19066.6
10934.1
10934
10934
10934.1
10934
7414.02
7414.03
7414.06
5787.09
5787.08
3553.99
3078.27
2611.07
2546.59
2841.04
4523
4523.01
6600.7
6600.69
6600.67
12877.7
12877.8
12877.8
12877.7
12877.8
12877.8
12877.8
12877.8
12877.8
12877.7
12877.8
12877.8
12877.8
12877.7
12877.8
6600.7
6600.67
6600.69
4523.01
4523.04
2841.04
2546.59
2546.74
2595.03
3508.86
10088.9
5118.6
5118.62
10088.9
10088.8
10088.9
10088.9
10088.9
10088.9
10088.9
10088.9
10088.9
10088.9
10088.9
10088.9
10088.9
10088.8
5118.62
5118.6
3508.85
2546.74
2595.03
2970.37
2683.15
4246.58
4246.54
8376.22
8376.19
8376.19
8376.22
8376.23
8376.22
8376.23
8376.22
8376.19
8376.19
4246.54
4246.54
2683.15
2970.35
2568.2
3637.2
3637.19
7164.71
7164.75
7164.67
7164.64
7164.64
7164.75
7164.71
7164.67
3637.2
3637.19
2568.2
2546.56
3197.64
6271.62
6271.62
6271.65
6271.65
6271.62
6271.62
3197.64
2546.56
2895.59
5583.38
5583.34
5583.38
5583.38
5583.34
5583.38
2895.59
2705.27
5017.99
5017.98
5017.99
5017.98
2705.27
5109.61
5525.72
5537.32
5795.16
5525.01
5524.65
5110.02
2546.48
2898.52
2898.34
5634.28
5649.5
5493.11
5637.61
5634.23
5638.15
5647.99
5634.65
5633.84
2898.31
2898.49
2546.48
2546.48
2546.56
3197.62
3197.64
6272.76
6273.67
6273.45
6273.94
6278.72
6273.64
6273.93
6273.45
6272.77
3197.64
3197.62
2546.56
2546.48
2546.48
2568.2
3637.22
3637.17
7164.75
7164.67
7164.75
7164.71
7164.75
7164.67
7164.71
3637.17
3637.22
2568.2
2546.48
2546.48
2546.48
2683.15
4246.53
4246.52
4246.54
8376.19
8376.19
8376.2
8376.19
8376.19
4246.53
4246.52
4246.54
2683.15
2546.48
2546.48
2546.48
2546.48
2546.75
2970.36
2595.04
2970.35
3508.86
3508.86
3508.84
5118.58
5118.58
5118.6
5118.6
5118.59
5118.62
5118.62
5118.6
5118.58
5118.58
5118.6
3508.84
2970.37
3508.86
3508.86
2970.36
2595.04
2546.75
2546.48
2546.48
2546.48
2546.48
2546.48
2546.48
2546.59
2841.03
2841.03
4522.99
4523.02
4523.02
6600.71
6600.7
6600.67
6600.69
6600.68
6600.67
6600.7
6600.69
6600.71