# vtk DataFile Version 3.0
Happy Go Lucky
ASCII
DATASET POLYDATA
POINTS 3856 float
0 -0.29498 -1
-0.18024 -0.677665 -0.906127
0 -0.677665 -0.923879
0.18024 -0.677665 -0.906127
-0.37533 -0.490068 -0.906127
-0.191341 -0.490068 -0.961939
0 -0.490068 -0.980785
0.191342 -0.490068 -0.96194
0.37533 -0.490068 -0.906127
-0.382683 -0.29498 -0.923879
-0.19509 -0.29498 -0.980784
0 -0.29498 -0.9
0.19509 -0.29498 -0.980785
0.382683 -0.29498 -0.923879
-0.37533 -0.0998901 -0.906127
-0.191341 -0.0998901 -0.961939
0 -0.0998901 -0.980785
0.191342 -0.0998901 -0.96194
0.37533 -0.0998901 -0.906127
-0.18024 0.0877039 -0.906127
0 0.0877039 -0.923879
0.18024 0.0877039 -0.906127
-0.162211 -0.850556 -0.815493
0 -0.850556 -0.83147
0.162212 -0.850556 -0.815493
-0.353553 -0.677665 -0.853553
-0.162216 -0.639396 -0.815514
0 -0.639396 -0.831491
0.162216 -0.639396 -0.815515
0.353553 -0.677665 -0.853553
-0.544895 -0.490068 -0.815493
-0.337797 -0.470559 -0.815514
-0.172207 -0.470559 -0.865745
0 -0.470559 -0.882707
0.172208 -0.470559 -0.865746
0.337797 -0.470559 -0.815515
0.544895 -0.490068 -0.815493
-0.555569 -0.29498 -0.831469
-0.344414 -0.29498 -0.831491
-0.175581 -0.29498 -0.882706
0 -0.29498 -0.8
0.175581 -0.29498 -0.882707
0.344415 -0.29498 -0.831492
0.55557 -0.29498 -0.831469
-0.337797 -0.119399 -0.815514
-0.172207 -0.119399 -0.865745
0 -0.119399 -0.882707
0.172208 -0.119399 -0.865746
0.337797 -0.119399 -0.815515
-0.544895 -0.0998901 -0.815493
0.544895 -0.0998901 -0.815493
-0.353553 0.0877039 -0.853553
-0.162216 0.0494356 -0.815514
0 0.0494356 -0.831491
0.162216 0.0494356 -0.815515
0.353553 0.0877039 -0.853553
-0.162211 0.260591 -0.815493
0 0.260591 -0.83147
0.162212 0.260591 -0.815493
3.36331e-12 -1.00209 -0.707107
-0.318189 -0.850556 -0.768177
0.31819 -0.850556 -0.768178
-0.14599 -0.794999 -0.733943
0 -0.794999 -0.748323
0.145991 -0.794999 -0.733944
-0.51328 -0.677665 -0.768177
-0.318198 -0.639396 -0.768198
-0.144192 -0.601127 -0.724902
0 -0.601127 -0.739103
0.144192 -0.601127 -0.724902
0.318198 -0.639396 -0.768198
0.51328 -0.677665 -0.768178
-0.490405 -0.470559 -0.733944
-0.300264 -0.45105 -0.724902
-0.153073 -0.45105 -0.769551
0 -0.45105 -0.784628
0.153073 -0.45105 -0.769552
0.300264 -0.45105 -0.724902
0.490406 -0.470559 -0.733944
-0.707106 -0.29498 -0.707106
-0.500012 -0.29498 -0.748322
-0.306146 -0.29498 -0.739103
-0.156072 -0.29498 -0.784627
0 -0.29498 -0.7
0.156072 -0.29498 -0.784628
0.306147 -0.29498 -0.739104
0.500013 -0.29498 -0.748323
0.707107 -0.29498 -0.707107
-0.490405 -0.119399 -0.733944
-0.300264 -0.138908 -0.724902
-0.153073 -0.138908 -0.769551
0 -0.138908 -0.784628
0.153073 -0.138908 -0.769552
0.300264 -0.138908 -0.724902
0.490406 -0.119399 -0.733944
-0.51328 0.0877039 -0.768177
-0.318198 0.0494356 -0.768198
-0.144192 0.0111672 -0.724902
0 0.0111672 -0.739103
0.144192 0.0111672 -0.724902
0.318198 0.0494356 -0.768198
0.51328 0.0877039 -0.768178
-0.318189 0.260591 -0.768177
-0.14599 0.205035 -0.733943
0 0.205035 -0.748323
0.145991 0.205035 -0.733944
0.31819 0.260591 -0.768178
0 0.412124 -0.707107
-0.270598 -1.00209 -0.653281
-0.13795 -1.00209 -0.69352
-1.8763e-05 -1.01533 -0.603542
0.13795 -1.00209 -0.69352
0.270598 -1.00209 -0.653281
-0.124163 -0.931324 -0.624199
2.66921e-07 -0.930047 -0.636924
0.124163 -0.931328 -0.624197
-0.461939 -0.850556 -0.691341
0.46194 -0.850556 -0.691342
-0.415745 -0.794999 -0.622207
-0.28637 -0.794999 -0.69136
-0.254551 -0.73944 -0.614542
-0.129769 -0.73944 -0.652394
0 -0.73944 -0.665176
0.129769 -0.73944 -0.652394
0.286371 -0.794999 -0.69136
0.254552 -0.73944 -0.614542
0.415746 -0.794999 -0.622207
-0.653281 -0.677665 -0.653281
-0.461952 -0.639396 -0.69136
-0.410624 -0.601127 -0.614542
-0.282843 -0.601127 -0.682842
0.282843 -0.601127 -0.682843
0.461952 -0.639396 -0.69136
0.410624 -0.601127 -0.614542
0.653281 -0.677665 -0.653281
-0.247487 -0.562857 -0.597487
-0.126168 -0.562857 -0.634289
0 -0.562857 -0.646715
0.126168 -0.562857 -0.634289
0.247487 -0.562857 -0.597487
-0.693519 -0.490068 -0.69352
-0.624167 -0.470559 -0.624168
-0.435916 -0.45105 -0.652394
-0.262731 -0.431542 -0.634289
-0.133939 -0.431542 -0.673357
0 -0.431542 -0.68655
0.133939 -0.431542 -0.673358
0.262731 -0.431542 -0.634289
0.435916 -0.45105 -0.652394
0.69352 -0.490068 -0.69352
0.624168 -0.470559 -0.624168
-0.636395 -0.29498 -0.636396
-0.444455 -0.29498 -0.665175
-0.267878 -0.29498 -0.646715
-0.136563 -0.29498 -0.686549
0 -0.29498 -0.6
0.136563 -0.29498 -0.68655
0.267878 -0.29498 -0.646716
0.444456 -0.29498 -0.665176
0.636396 -0.29498 -0.636396
-0.624167 -0.119399 -0.624168
-0.435916 -0.138908 -0.652394
-0.262731 -0.158417 -0.634289
-0.133939 -0.158417 -0.673357
0 -0.158417 -0.68655
0.133939 -0.158417 -0.673358
0.262731 -0.158417 -0.634289
0.435916 -0.138908 -0.652394
0.624168 -0.119399 -0.624168
-0.693519 -0.0998901 -0.69352
-0.247487 -0.0271022 -0.597487
-0.126168 -0.0271022 -0.634289
0 -0.0271022 -0.646715
0.126168 -0.0271022 -0.634289
0.247487 -0.0271022 -0.597487
0.69352 -0.0998901 -0.69352
-0.653281 0.0877039 -0.653281
-0.410624 0.0111672 -0.614542
-0.461952 0.0494356 -0.69136
-0.282843 0.0111672 -0.682842
0.282843 0.0111672 -0.682843
0.410624 0.0111672 -0.614542
0.461952 0.0494356 -0.69136
0.653281 0.0877039 -0.653281
-0.254551 0.149478 -0.614542
-0.129769 0.149478 -0.652394
0 0.149478 -0.665176
0.129769 0.149478 -0.652394
0.254552 0.149478 -0.614542
-0.415745 0.205035 -0.622207
-0.461939 0.260591 -0.691341
-0.28637 0.205035 -0.69136
0.286371 0.205035 -0.69136
0.415746 0.205035 -0.622207
0.46194 0.260591 -0.691342
-0.124155 0.341415 -0.624168
0 0.341415 -0.636396
0.124155 0.341415 -0.624168
-0.270598 0.412124 -0.653281
-0.13795 0.412124 -0.69352
0.13795 0.412124 -0.69352
0.270598 0.412124 -0.653281
-0.5 -1.00209 -0.5
-0.392847 -1.00209 -0.587938
-0.229235 -1.0155 -0.554891
-0.112255 -1.01513 -0.578228
0.112184 -1.01513 -0.578095
0.22929 -1.0155 -0.554943
0.392847 -1.00209 -0.587938
0.5 -1.00209 -0.5
-0.353648 -0.931066 -0.529283
-0.243687 -0.930504 -0.588298
-0.121615 -0.945584 -0.519144
4.81264e-05 -0.988438 -0.517588
0.121725 -0.945606 -0.518985
0.243687 -0.930497 -0.5883
0.353648 -0.931065 -0.529283
-0.587937 -0.850556 -0.587938
-0.216478 -0.860671 -0.522625
-0.110356 -0.86064 -0.554829
-1.04664e-14 -0.860671 -0.565685
0.110356 -0.860641 -0.554828
0.216478 -0.860671 -0.522625
0.587938 -0.850556 -0.587938
-0.529144 -0.794999 -0.529144
-0.369551 -0.73944 -0.553073
0.369552 -0.73944 -0.553073
0.529144 -0.794999 -0.529144
-0.768177 -0.677665 -0.51328
-0.587953 -0.639396 -0.587953
-0.522625 -0.601127 -0.522625
-0.222732 -0.683882 -0.537724
-0.113548 -0.683882 -0.570845
0 -0.683882 -0.582029
0 -0.628323 -0.498882
0.113548 -0.683882 -0.570845
0.222733 -0.683882 -0.537724
0.587953 -0.639396 -0.587953
0.522625 -0.601127 -0.522625
0.768178 -0.677665 -0.51328
-0.359296 -0.562857 -0.537724
-0.212132 -0.524588 -0.512132
-0.108144 -0.524588 -0.543676
-2.52272e-22 -0.524588 -0.554327
0.108144 -0.524588 -0.543676
0.212132 -0.524588 -0.512132
0.359296 -0.562857 -0.537724
-0.815493 -0.490068 -0.544895
-0.554815 -0.45105 -0.554816
-0.381426 -0.431542 -0.570845
-0.225198 -0.412033 -0.543676
-0.114805 -0.412033 -0.577164
0 -0.412033 -0.588471
0.114805 -0.412033 -0.577164
0.225198 -0.412033 -0.543676
0.381427 -0.431542 -0.570845
0.554816 -0.45105 -0.554816
0.815493 -0.490068 -0.544895
-0.831468 -0.29498 -0.55557
-0.748322 -0.29498 -0.500013
-0.565685 -0.29498 -0.565685
-0.333342 -0.29498 -0.498881
-0.388898 -0.29498 -0.582028
-0.22961 -0.29498 -0.554327
-0.117054 -0.29498 -0.588471
-9.23575e-10 -0.29498 -0.5
0.117054 -0.29498 -0.588471
0.22961 -0.29498 -0.554328
0.388899 -0.29498 -0.582029
0.333342 -0.29498 -0.498882
0.565685 -0.29498 -0.565685
0.748323 -0.29498 -0.500013
0.83147 -0.29498 -0.55557
-0.554815 -0.138908 -0.554816
-0.381426 -0.158417 -0.570845
-0.225198 -0.177926 -0.543676
-0.114805 -0.177926 -0.577164
0 -0.177926 -0.588471
0.114805 -0.177926 -0.577164
0.225198 -0.177926 -0.543676
0.381427 -0.158417 -0.570845
0.554816 -0.138908 -0.554816
-0.815493 -0.0998901 -0.544895
-0.359296 -0.0271022 -0.537724
-0.212132 -0.0653703 -0.512132
-0.108144 -0.0653703 -0.543676
-1.9141e-22 -0.0653703 -0.554327
0.108144 -0.0653703 -0.543676
0.212132 -0.0653703 -0.512132
0.359296 -0.0271022 -0.537724
0.815493 -0.0998901 -0.544895
-0.768177 0.0877039 -0.51328
-0.522625 0.0111672 -0.522625
-0.587953 0.0494356 -0.587953
-0.222732 0.0939199 -0.537724
-0.113548 0.0939199 -0.570845
0 0.0383624 -0.498882
0 0.0939199 -0.582029
0.113548 0.0939199 -0.570845
0.222733 0.0939199 -0.537724
0.522625 0.0111672 -0.522625
0.587953 0.0494356 -0.587953
0.768178 0.0877039 -0.51328
-0.369551 0.149478 -0.553073
0.369552 0.149478 -0.553073
-0.529144 0.205035 -0.529144
-0.587937 0.260591 -0.587938
-0.216478 0.270706 -0.522625
-0.11036 0.270706 -0.554816
0 0.270706 -0.565685
0.11036 0.270706 -0.554816
0.216478 0.270706 -0.522625
0.529144 0.205035 -0.529144
0.587938 0.260591 -0.587938
-0.353563 0.341415 -0.529144
-0.243538 0.341415 -0.587953
0.243538 0.341415 -0.587953
0.353563 0.341415 -0.529144
-0.5 0.412124 -0.5
-0.392847 0.412124 -0.587938
0 0.453339 -0.500013
0.392847 0.412124 -0.587938
0.5 0.412124 -0.5
-0.212607 0.536484 -0.513279
-0.108386 0.536484 -0.544895
0 0.536484 -0.55557
0.108386 0.536484 -0.544895
0.212608 0.536484 -0.51328
-0.423285 -1.01569 -0.423274
-0.330886 -1.01474 -0.492084
-0.256625 -1.0172 -0.427347
-0.160605 -1.01895 -0.428294
3.83355e-05 -1.01755 -0.435136
-0.0823318 -1.01794 -0.484697
0.0823506 -1.01795 -0.484582
0.160594 -1.01897 -0.428376
0.256618 -1.01719 -0.427383
0.330864 -1.01474 -0.492101
0.423373 -1.0157 -0.423389
-0.450197 -0.930759 -0.450197
-0.313193 -0.949427 -0.427936
-0.202186 -0.966223 -0.48359
-0.169553 -0.936306 -0.401892
-0.0888458 -0.940405 -0.439437
-1.95633e-05 -0.931522 -0.443928
0.0888186 -0.940383 -0.439334
0.202187 -0.966267 -0.483643
0.169562 -0.936336 -0.401924
0.313235 -0.949457 -0.427873
0.4502 -0.930747 -0.4502
-0.691341 -0.850556 -0.46194
-0.4 -0.860671 -0.4
-0.314278 -0.860671 -0.47035
0.4 -0.860671 -0.4
[...]
POINT_DATA 3856
SCALARS scalar float
LOOKUP_TABLE default
2546.48
2546.48
2546.48
2546.48
2546.48
2546.48
2546.48
2546.48
2546.48
2546.48
2546.48
2546.48
2546.48
2546.48
2546.48
2546.48
2546.48
2546.48
2546.48
2546.48
2546.48
2546.48
2546.48
2546.48
2546.48
2546.48
2546.48
2546.48
2546.48
2546.48
2546.48
2546.48
2546.48
2546.48
2546.48
2546.48
2546.48
2546.48
2546.48
2546.48
2546.48
2546.48
2546.48
2546.48
2546.48
2546.48
2546.48
2546.48
2546.48
2546.48
2546.48
2546.48
2546.48
2546.48
2546.48
2546.48
2546.48
2546.48
2546.48
5092.96
2546.48
2546.48
2546.48
2546.48
2546.48
2546.48
2546.48
2546.48
2546.48
2546.48
2546.48
2546.48
2546.48
2546.48
2546.48
2546.48
2546.48
2546.48
2546.48
2546.48
2546.48
2546.48
2546.48
2546.48
2546.48
2546.48
2546.48
2546.48
2546.48
2546.48
2546.48
2546.48
2546.48
2546.48
2546.48
2546.48
2546.48
2546.48
2546.48
2546.48
2546.48
2546.48
2546.48
2546.48
2546.48
2546.48
2546.48
2546.48
5092.96
5092.96
5107.11
5092.96
5092.96
2546.58
2548.96
2546.58
2546.48
2546.48
2546.48
2546.48
2546.48
2546.48
2546.48
2546.48
2546.48
2546.48
2546.48
2546.48
2546.48
2546.48
2546.48
2546.48
2546.48
2546.48
2546.48
2546.48
2546.48
2546.48
2546.48
2546.48
2546.48
2546.48
2546.48
2546.48
2546.48
2546.48
2546.48
2546.48
2546.48
2546.48
2546.48
2546.48
2546.48
2546.48
2546.48
2546.48
2546.48
2546.48
2546.48
2546.48
2546.48
2546.48
2546.48
2546.48
2546.48
2546.48
2546.48
2546.48
2546.48
2546.48
2546.48
2546.48
2546.48
2546.48
2546.48
2546.48
2546.48
2546.48
2546.48
2546.48
2546.48
2546.48
2546.48
2546.48
2546.48
2546.48
2546.48
2546.48
2546.48
2546.48
2546.48
2546.48
2546.48
2546.48
2546.48
2546.48
2546.48
2546.48
2546.48
2546.48
2546.48
2546.48
5092.96
5092.96
5105.72
5102.69
5102.66
5105.75
5092.96
5092.96
2547.09
2548.17
2574.24
2566.09
2574.39
2548.18
2547.09
2546.48
2546.48
2547.83
2546.48
2547.77
2546.48
2546.48
2546.48
2546.48
2546.48
2546.48
2546.48
2546.48
2546.48
2546.48
2546.48
2546.48
2546.59
2546.48
2546.48
2546.48
2546.48
2546.48
2546.48
2546.48
2546.48
2546.48
2546.48
2546.48
2546.48
2546.48
2546.48
2546.48
2546.48
2546.48
2546.48
2546.48
2546.48
2546.48
2546.48
2546.48
2546.48
2546.48
2546.48
2546.48
2546.48
2546.48
2546.48
2546.64
2546.48
2546.48
2546.48
2546.48
2546.48
2546.48
2546.48
2546.48
2546.48
2546.48
2546.48
2546.48
2546.48
2546.48
2546.48
2546.48
2546.48
2546.48
2546.48
2546.48
2546.48
2546.48
2546.48
2546.48
2546.48
2546.48
2546.48
2546.48
2546.48
2546.48
2546.59
2546.48
2546.48
2546.48
2546.48
2546.48
2546.48
2546.48
2546.48
2546.48
2546.48
2546.48
2546.48
2546.48
2546.48
2546.48
2546.48
2546.48
2546.48
2546.48
2546.48
2546.48
2546.48
2546.48
2546.56
2546.48
2546.48
2546.48
2546.48
2546.48
2546.48
2546.48
5105.57
5101.04
5116.11
5138.42
5144.02
5120.72
5120.76
5138.54
5116.1
5101.02
5105.63
2547.72
2594.68
2569.3
2633.47
2658.24
2611.05
2658.09
2569.6
2633.46
2594.55
2547.75
2546.48
2546.48
2546.48
2546.48
2546.48
2546.48
2546.48
2546.48
2546.75
2546.75
2546.74
2546.74
2595.03
2595.03
2546.74
2595.03
2546.75
2546.75
2546.48
2546.48
2546.48
2546.48
2546.48
2546.48
2546.59
2546.59
2546.59
2546.59
2546.59
2546.59
2546.48
2546.48
2546.48
2546.48
2546.48
2546.48
2611.07
2611.07
2611.07
2546.48
2546.48
2546.48
2546.48
2546.48
2546.48
2546.48
2555.14
2555.14
2555.14
2555.14
2555.14
2546.48
2546.48
2546.48
2546.48
2546.48
2547.15
2547.15
2547.15
2547.15
2547.15
2547.15
2547.15
2546.48
2546.48
2546.48
2546.64
2546.64
2546.64
2751.4
2546.64
2546.64
2546.64
2546.48
2546.48
2546.48
2546.48
2546.48
2546.48
2546.48
2546.48
2547.15
2547.15
2547.15
2555.14
2547.15
2555.14
2555.14
2547.15
2555.14
2547.15
2555.14
2547.15
2546.48
2546.48
2546.48
2546.48
2546.48
2546.48
2546.48
2611.07
2611.07
2611.07
2546.48
2546.48
2546.48
2546.48
2546.48
2546.48
2546.59
2546.59
2546.59
2546.59
2546.59
2546.59
2546.48
2546.48
2546.48
2546.48
2546.48
2595.03
2595.03
2595.03
2546.48
2546.48
2546.48
2546.48
2546.48
2546.75
2546.75
2546.74
2546.74
2546.74
2546.75
2546.75
2546.48
2546.48
2546.48
2546.48
2546.48
2568.2
2568.2
2568.2
2568.2
2568.2
2546.48
2546.56
2546.56
2546.56
2546.56
2546.56
2546.56
2546.48
2546.48
5092.96
5101.03
5134.04
5138.33
5138.35
5649.12
5178.64
5648.91
5137.75
5138.38
5134.19
5101.02
5092.96
2547.09
2594.77
2628.64
2647.2
2614.86
2948.13
3031.76
3336.6
2947.7
3337
2615
2647.4
2628.55
2594.44
2547.1
2546.48
2546.48
2697.49
2723.35
2695.25
2724.27
2695.31
2723.24
2697.55
2546.48
2546.48
2546.48
2546.74
2595.03
2595.03
2970.62
2595.04
2970.39
2970.53
2970.38
2970.61
2595.04
2595.03
2595.03
2546.74
2546.48
2546.48
2546.48
2546.48
2546.59
2841.03
2841.04
2841.03
2841.04
2841.03
2546.59
2546.48
2546.48
2546.48
2546.48
2546.48
2546.48
2611.07
2611.07
3078.29
3078.28
3078.27
3078.28
2611.07
3078.29
2611.07
2546.48
2546.48
2546.48
2546.48
2546.48
2546.48
2546.48
2546.48
2555.14
2862.05
2555.14
2862.05
2862.05
2862.05
2862.05
2862.05
2555.14
2862.05
2555.14
2546.48
2546.48
2546.48
2546.48
2546.48
2547.15
2774.38
2774.39
2774.38
2774.38
2774.38
2774.38
2774.38
2547.15
2546.48
2546.48
2546.48
2546.48
2546.48
2546.64
2751.4
2774.38
2751.4
2774.38
2751.4
4074.34
2774.38
2774.38
2751.4
2774.38
2751.4
2774.38
2751.39
2774.38
2546.64
2546.48
2546.48
2546.48
2546.48
2546.48
2546.48
2546.48
2546.48
2546.48
2555.14
2547.15
2555.14
2862.05
2862.05
2862.05
2862.05
2862.05
2862.05
2555.14
2862.05
2555.14
2547.15
2546.48
2546.48
2546.48
2546.48
2546.48
2546.48
2546.48
2546.48
2611.07
3078.29
2611.07
3078.28
3078.27
3078.28
3078.29
2611.07
2611.07
2546.48
2546.48
2546.48
2546.48
2546.48
2546.48
2546.48
2546.59
2841.03
2841.04
2841.03
2841.04
2841.03
2546.59
2546.48
2546.48
2546.48
2546.48
2595.03
2595.03
2595.04
2595.04
2595.03
2595.03
2546.48
2546.48
2546.48
2546.74
2683.15
2970.36
2683.15
2970.37
2970.35
2683.15
2683.16
2970.35
2683.15
2683.14
2970.36
2683.15
2546.74
2546.48
2546.48
2546.48
2568.2
2568.2
2568.2
2568.2
2546.48
2546.48
2546.56
3197.64
3197.64
3197.64
2546.56
2546.48
2546.48
2546.48
2895.59
2895.59
2895.59
2895.59
2895.59
2546.48
2546.48
2705.27
2705.28
2705.27
2705.27
2705.27
2705.27
2705.27
5092.96
5105.74
5116.06
5138.24
5682.93
5704
5788.77
6617.61
5734.64
5795.25
6494.13
5716.89
5681.42
5138.4
5116.18
5105.75
5092.96
2548.17
2569.55
2614.93
2964.26
3682.45
3211.77
3270.92
3732.27
5035.02
3729.1
3697.82
3681.69
3729.88
4826.01
3734.27
3211.37
3268.04
2965.35
2614.65
2569.71
2548.19
2546.48
2697.5
2715.82
4308.03
4311.72
4269.67
4269.73
4311.15
2715.65
2697.53
2546.48
2546.48
2546.48
2546.75
2595.03
2970.6
3508.85
2970.37
3508.86
3508.89
3508.86
3508.87
3508.85
2970.39
3508.86
3508.84
3508.85
2970.6
2595.03
2546.75
2546.48
2546.48
2546.48
2546.48
2546.59
2841.03
2841.04
2841.03
4523.04
4523.05
4523.05
4523.05
4523.08
2841.03
2841.04
2841.03
2546.59
2546.48
2546.48
2546.48
2546.48
2611.07
3554.01
2611.07
3078.29
3554
3554.01
3078.29
3554.02
3554
5787.19
5787.18
5787.16
3554.02
5787.21
5787.19
3554.01
3554.01
3553.99
3078.28
2611.07
3078.28
2611.07
2546.48
2546.48
2546.48
2546.48
2862.05
2555.14
4401.63
2862.06
4401.6
4401.61
4899.94
4899.99
4401.6
4401.61
4899.97
4899.98
4401.61
4899.98
4899.97
4401.61
4899.99
4401.63
4401.6
2862.05
2862.05
2555.14
2546.48
2546.48
2547.15
2774.38
4150.16
2774.38
4150.17
4150.17
4150.17
4150.16
4150.16
4150.17
4150.16
2774.39
4150.18
2774.38
2547.15
2546.48
2546.48
2546.48
2546.64
2751.39
2774.38
2751.4
4074.33
4150.15
2774.38
4074.34
4074.33
4150.16
4150.16
4074.35
4150.16
4150.16
4074.33
4150.16
4074.33
4074.33
4150.16
4150.16
2774.39
4150.17
4074.33
2751.39
2774.38
2751.39
2546.64
2546.48
2546.48
2546.48
2546.48
2546.48
2547.15
2555.14
2862.05
2862.06
4401.6
4899.91
4899.96
4401.58
4401.57
4401.58
4401.57
4899.94
4899.94
4899.95
4899.94
4401.58
4401.6
4899.96
4401.58
4401.58
2862.05
2555.14
2862.05
2547.15
2546.48
2546.48
2546.48
2546.48
2611.07
3078.29
2611.07
3554
3078.28
3553.98
3553.99
5787.06
5787.09
5787.07
3554
3553.98
5787.1
5787.09
3554
3078.28
3554
3553.99
3553.98
3078.27
2611.07
2611.07
2546.48
2546.48
2546.48
2546.48
2546.59
2841.04
2841.03
2841.03
4523.01
4523.02
4523
4523.01
4523.05
2841.03
2841.03
2841.04
2546.59
2546.48
2546.48
2546.48
2595.03
3508.85
3508.89
3508.86
3508.86
3508.87
3508.85
3508.85
3508.86
3508.84
2595.03
2546.48
2546.48
2546.48
2546.75
2683.15
2970.36
2683.15
2970.35
4246.58
4246.54
4246.51
4246.54
4246.54
2970.37
2970.36
2683.15
2683.15
2546.75
2546.48
2546.48
2546.48
2568.2
3637.2
3637.22
3637.19
3637.24
3637.2
3637.19
3637.22
2568.2
2546.48
2546.48
2546.56
3197.62
3197.63
3197.62
3197.63
3197.62
3197.62
2546.56
2546.48
2546.48
2895.6
2895.59
2895.59
2895.59
2546.48
2705.28
2705.26
5018.01
2705.27
2705.27
5092.96
5102.68
5138.59
5138.32
5705.68
6470.89
6740.38
7277.81
9426.14
9463.28
6869.78
6422.45
5714.07
5138.48
5138.61
5102.61
5092.96
2546.58
2574.49
2633.48
3211.62
3271.52
3732.14
3682.4
6165.92
6107.75
7342.13
3320.75
3660.92
6434.01
6309.96
7351.72
7392.57
7307.68
6949.7
6442.96
7275.78
7363.49
7290.74
7241.64
6328.06
6240.25
3311.69
3659.31
3268.09
3211.89
3734.28
3681.66
2633.39
2574.32
2546.58
2546.48
2547.84
2723.35
4270.54
4270.56
4321.46
8413.13
8415.43
8416.25
8413.91
8415.6
8418.39
8414.85
4320.92
4270.36
4270.39
2723.34
2547.76
2546.48
2546.48
2546.48
2546.75
2546.75
2970.61
2595.04
2970.39
3508.86
3508.84
5118.61
5119
5118.61
10077.8
10077.8
5118.59
5119.19
5119.21
10077.8
5119.2
5118.58
5118.61
5119.01
5118.61
2970.37
3508.85
3508.86
2970.61
2595.04
2546.74
2546.75
2546.48
2546.48
2546.48
2546.48
2546.48
2546.48
2546.59
2546.59
2841.03
6601.11
4523.05
4523.05
4523.02
6601.1
6601.07
6601.03
6601.04
6600.96
6600.99
6600.98
4523.04
4523.04
4523.01
6600.94
2841.03
2546.59
2546.59
2546.48
2546.48
2546.48
2546.48
2546.48
2546.48
2611.07
3078.29
3554.01
3554
3078.29
7414.12
5787.18
5787.17
5787.18
10934.9
10935
7414.22
7414.17
7414.22
10935
10934.9
7414.18
7414.21
7414.16
7414.18
10935
10935
10934.9
7414.12
5787.17
5787.18
5787.18
3553.99
3554
3078.28
2611.07
3078.29
2546.48
2546.48
2546.48
2546.48
2546.48
2546.48
2546.48
2555.14
2862.05
4899.99
4899.98
4401.61
4401.6
4900.03
4900.03
4401.59
4401.61
4899.94
4899.99
2862.05
2555.14
2546.48
2546.48
2546.48
2546.48
2546.48
2547.15
2547.15
2774.39
4150.16
4150.17
4150.14
4150.16
2774.38
2547.15
2547.15
2546.48
2546.48
2546.48
2546.48
2546.64
2546.64
2774.38
2751.4
4150.17
4150.15
4074.33
4074.34
4150.15
4150.14
4074.33
4074.32
2774.38
2751.4
2546.64
2546.64
2546.48
2546.48
2546.48
2546.48
2546.48
2546.48
2546.48
2546.48
2547.15
2547.15
2555.14
2862.05
4401.58
4401.58
4899.96
4899.95
4899.99
4899.99
4401.58
4401.57
4899.96
4899.91
2862.05
2547.15
2547.15
2555.14
2546.48
2546.48
2546.48
2546.48
2546.48
2546.48
2546.48
3078.28
2611.07
3078.29
3553.98
3553.99
5787.07
5787.07
5787.07
7413.98
10934.1
10934
7414.03
7414.08
7414.08
7414.03
10934.1
10934.1
10934.1
10934.1
10934.1
7414.03
7414.07
7414.02
5787.07
5787.07
5787.07
7413.98
3078.28
3553.98
3553.99
2611.07
3078.29
2546.48
2546.48
2546.48
2546.48
2546.48
2546.48
2546.48
2546.59
2546.59
2841.03
4523.02
4522.98
4523.01
6600.7
6600.7
6600.69
6600.67
6600.68
6600.66
6600.69
6600.7
6600.7
4522.99
4523.02
4523.02
2841.03
2546.59
2546.59
2546.48
2546.48
2546.48
2546.48
2546.48
2595.04
3508.86
3508.84
5118.6
5118.58
5118.58
5118.6
5118.62
5118.59
10088.9
10088.9
10088.9
5118.62
5118.6
5118.58
5118.6
5118.58
3508.85
3508.86
2595.04
2546.48
2546.48
2546.48
2546.48
2546.75
2546.74
2970.36
2683.15
2970.37
4246.49
4246.54
4246.54
8376.19
8376.22
8376.2
8376.19
8376.22
8376.19
8376.19
4246.54
4246.56
4246.54
2970.35
2970.36
2683.14
2546.74
2546.75
2546.48
2546.48
2546.48
2546.48
2568.2
3637.2
3637.22
3637.17
7164.64
7164.71
7164.75
7164.75
7164.67
7164.67
7164.75
7164.71
7164.64
3637.17
3637.22
3637.2
2568.2
2546.48
2546.48
2546.56
2546.56
3197.63
3197.62
6271.62
6271.65
6271.62
6271.62
6271.66
6271.65
6271.62
6271.62
6271.62
3197.62
3197.63
2546.56
2546.56
2546.48
2546.48
2895.58
2895.59
5583.38
5583.38
5583.42
5583.35
5583.38
5583.4
5583.37
5583.35
5583.36
5583.37
5583.38
2895.59
2895.59
2546.48
2705.27
5017.93
5017.98
5017.98
5017.98
5017.99
5017.98
5017.99
5017.98
5017.98
5017.93
2705.27
5092.96
5107.12
5120.78
5144.05
5178.78
5649.45
6598.46
5738.22
5789.57
9422.42
7313.3
6352.19
6349.16
5139.78
6145.28
6275.49
6640.87
6426.74
5720.43
5793.64
5649.24
5179.17
5144.21
5120.86
5107.15
5092.96
2548.96
2566.13
2611.01
2658.36
2948.45
3030.72
3336.76
3698.11
5061.68
3729.21
6939.87
7314.39
6459.79
6304.53
7339.39
7389.18
2648.03
2741.16
7338.45
6927.46
7295.07
6434.17
6308.94
6292.37
7275.57
4807.64
3697.49
3336.5
3729.63
3031.63
2947.62
2658.05
2610.99
2566.15
2548.97
2546.48
2546.48
2695.25
2724.26
4269.68
4311.79
4308
8417.19
8416.64
8414.42
8415.24
8413.5
8411.23
8415.85
8417.95
8413.87
8413.16
4269.66
4308.18
4311.22
2695.32
2724.29
2546.48
2546.48
2546.48
2546.48
2546.74
2595.03
2595.03
2970.38
2970.53
3508.86
3508.87
10077.8
10077.8
5118.59
5119.19
5119.22
10077.7
10077.7
10077.7
10077.7
10077.7
2587.68
10077.7
10077.7
10077.7
10077.7
10077.7
10077.7
10077.7
5119.19
5118.59
5119.2
3508.87
3508.85
2970.53
2970.39
2595.03
2595.03
2546.75
2546.48
2546.48
2546.48
2546.48
2546.48
2546.59
2546.48
2841.04
2841.03
4523.05
4523.08
4523.05
6601.04
6601.07
6601.1
6601.03
12746.3
12746.8
12748.6
12748.7
12747.7
12746.9
12746.3
3648.24
12746.1
12747.6
12757.2
12753.6
12754.7
12755.7
12756.5
12749.8
12751.1
12752.3
6600.82
6600.9
6600.86
6600.82
4523.07
4523.03
4522.99
2841.04
2841.03
2546.59
2546.48
2546.48
2546.48
2546.48
2546.48
2546.48
2611.07
2611.07
3078.28
3078.27
5787.15
5787.17
5787.2
3554.02
3554
7414.17
7414.22
10935
10934.9
10934.9
10935
7414.22
7414.17
19016
19016
19016
19016
19016.1
10935
13956.7
19016
19016
19016.1
19016
19016
19016
10935
10934.9
19016.1
19016.1
19016.1
19016
19016
19016
5787.2
10935
7414.17
7414.16
7414.18
7414.21
10935
10935
5787.2
5787.17
3554.01
3553.99
3078.28
3078.27
2611.07
2611.07
2546.48
2546.48
2546.48
2546.48
2546.48
2546.48
2546.48
2555.14
2555.14
2862.05
2862.05
4401.61
4899.97
4899.97
4401.61
4899.97
4899.98
4401.61
4401.6
2862.05
2862.05
2555.14
2555.14
2546.48
2546.48
2546.48
2546.48
2546.48
2547.15
2774.38
2774.38
4150.18
4150.17
4150.16
4150.16
2774.38
2774.38
2547.15
2546.48
2546.48
2546.48
2546.48
2546.48
2546.64
2751.4
4074.33
2751.4
2774.38
2774.38
4074.35
4150.16
4150.17
4074.33
4074.34
4150.16
4150.16
2751.4
2751.4
2774.38
2774.38
2546.64
2546.48
2546.48
2546.48
2546.48
2546.48
2546.48
2546.48
2546.48
2546.48
2547.15
2555.14
2555.14
2862.05
2862.05
4899.94
4401.58
4401.58
4899.94
4401.58
4899.94
4899.94
4401.57
2862.05
2862.05
2547.15
2555.14
2555.14
2546.48
2546.48
2546.48
2546.48
2546.48
2546.48
2546.48
2611.07
2611.07
3078.28
3078.27
5787.05
5787.07
5787.09
3553.98
3554
7414.03
7414.08
7414.08
7414.02
10934.1
10934.1
10934.1
10934
10934.1
10934.1
10934.1
5787.1
7414.04
7414.02
7414.07
7414.03
10934.1
10934.1
10934.1
3553.98
3554
5787.07
5787.09
3078.27
3078.28
2611.07
2611.07
2546.48
2546.48
2546.48
2546.48
2546.48
2546.48
2546.48
2546.59
2841.03
2841.04
4523.02
4523.01
4523.05
6600.7
6600.68
6600.66
6600.69
12877.8
12877.7
12877.8
12877.8
12877.8
12877.8
12877.8
12877.8
12877.7
19066.6
19066.6
19066.6
19066.6
19066.6
19066.6
13935.7
19066.6
19066.6
19066.6
12877.8
12877.8
12877.7
19066.6
19066.6
19066.5
19066.5
19066.5
19066.6
19066.5
19066.5
12877.8
12877.8
12877.7
12877.8
12877.8
6600.68
6600.7
6600.69
6600.66
4523.01
4522.97
4523.05
2841.04
2841.03
2546.59
2546.48
2546.48
2546.48
2546.48
2546.48
2595.03
2595.03
3508.87
3508.86
5118.59
5118.62
5118.6
10088.9
10088.9
4185.71
10088.9
10088.9
10088.8
10088.9
10088.9
10088.9
10088.9
10088.9
10088.8
10088.9
10088.9
10088.9
5118.6
5118.59
5118.62
3508.85
3508.87
2595.03
2595.03
2546.48
2546.48
2546.48
2546.48
2546.75
2683.15
2683.15
2970.35
2970.35
4246.58
4246.54
4246.51
8376.19
8376.19
8376.22
8376.2
2547.75
8376.23
8376.22
8376.23
8376.2
8376.19
8376.19
4246.54
4246.54
4246.51
2683.16
2970.37
2970.35
2683.15
2546.75
2546.48
2546.48
2546.48
2546.48
2568.2
2568.2
3637.19
3637.24
7164.67
7164.75
7164.75
7164.71
2546.48
7164.75
7164.67
7164.71
7164.75
3637.24
3637.19
2568.2
2568.2
2546.48
2546.48
2546.56
3197.64
3197.64
6271.65
6271.62
6271.62
6271.66
2546.48
6271.66
6271.62
6271.65
6271.62
3197.64
3197.64
2546.56
2546.48
2546.48
2895.59
2895.59
5583.34
5583.38
5583.39
2546.48
5583.38
5583.39
5583.34
2895.59
2895.59
2546.48
2705.27
2705.27
5018.01
5017.98
5017.99
2546.48
5018.01
5017.99
5017.98
2705.27
2705.27
5092.96
5120.74
5648.88
5797.86
6450.73
9492.54
6138.25
6283.63
6128.03
6138.6
6506.57
5787.28
5648.19
5120.67
2658.18
2947.72
3336.92
4737.27
3730.34
3681.66
6479.98
7254.92
7314.68
7288.93
2610.36
7279.72
7398.64
7344.18
6315.97
6313.19
5126.29
3728.85
3334.59
3681.51
2948.41
2658.3
2695.28
4311.22
4269.77
8418.86
8422.36
8417.3
8413.21
8418.55
2607.65
8412.62
8409.44
8409.33
8413.85
8415.51
4269.55
4311.93
2695.16
2595.03
2546.75
2970.39
3508.85
5118.58
5119.2
10077.8
10077.7
10077.7
10077.7
10077.7
10077.7
10077.7
10077.7
10077.6
10077.6
10077.1
10077.2
10077.2
10077.4
10077.4
5118.59
5119.18
3508.86
2970.38
2546.74
2595.03
2546.59
2841.04
4523.03
4523.05
6600.99
6600.96
6600.98
12749.9
12752.5
12755.8
12751.2
12754.8
12753.7
12756.6
12757.3
12758.2
12758.1
12757.7
12758.3
12758.2
12757.7
12758
6600.8
6600.8
6600.79
4523.03
4523.06
2841.04
2546.59
2611.07
3078.28
5787.18
5787.19
3554.02
7414.22
7414.22
7414.17
10934.9
10935
10934.9
10934.9
10934.9
19016.1
19016.1
19016.1
19016.2
19016.2
19016.1
19016.1
19016.1
19016.2
19016.2
10934.9
10934.9
10935
19016.2
19016.2
19016.2
19016.2
19016.2
10935
7414.16
7414.17
7414.21
10934.9
5787.21
3554.01
5787.19
3078.28
2611.07
2555.14
2862.05
4899.97
4899.94
4401.61
4899.98
4899.97
4401.61
2862.05
2555.14
2547.15
2774.38
4150.17
4150.17
2774.38
2547.15
2546.64
2774.38
2751.4
4150.16
4074.35
4074.35
4150.16
2751.4
2774.38
2546.64
2547.15
2555.14
2862.05
4401.58
4899.94
4899.91
4401.58
4899.95
4899.94
2862.05
2555.14
2547.15
2611.07
3078.28
5787.07
5787.09
3554
10934.1
10934
10934.1
7414.08
7414.08
7414.03
10934.1
10934
10934.1
10934
10934
10934.1
10934.1
7414.02
7414.03
7414.07
5787.1
3554
5787.09
3078.28
2611.07
2546.59
2841.04
4523
4523.01
6600.7
6600.69
6600.67
19066.6
19066.6
12877.7
12877.8
12877.8
12877.7
12877.8
12877.8
12877.8
12877.8
19066.6
19066.6
19066.6
19066.6
19066.6
19066.6
12877.7
12877.8
12877.8
12877.8
12877.7
12877.8
19066.6
12877.8
19066.6
19066.6
19066.6
19066.6
19066.6
19066.6
6600.7
6600.66
6600.69
4523.01
4523.05
2841.04
2546.59
2595.03
3508.86
10088.9
5118.6
5118.62
10088.9
10088.9
10088.9
10088.9
10088.8
10088.9
10088.9
10088.9
10088.9
10088.9
10088.9
10088.9
10088.9
10088.8
5118.6
5118.62
3508.86
2595.03
2546.74
2970.37
2683.15
4246.54
4246.58
8376.19
8376.19
8376.22
8376.23
8376.22
8376.23
8376.22
8376.22
8376.2
8376.19
4246.54
4246.54
2970.35
2683.15
2546.74
2568.2
3637.2
3637.19
7164.71
7164.75
7164.67
7164.64
7164.64
7164.75
7164.71
7164.67
3637.2
3637.19
2568.2
2546.56
3197.64
6271.62
6271.62
6271.65
6271.65
6271.62
6271.62
3197.64
2546.56
2895.59
5583.38
5583.38
5583.34
5583.38
5583.34
5583.38
2895.59
2705.27
5017.99
5017.98
5017.99
5017.98
2705.27
5092.96
5102.66
5138.49
5137.49
5721.24
6891.42
6422.21
6686.8
6397.68
6421.87
6410.8
6753.44
5712.99
5136.95
5138.19
5102.68
5092.96
2546.58
2574.93
2570.17
2633.38
3210.8
3267.91
3734.36
7252.35
3659.4
3311.19
6264.47
6231.03
6331.47
6468.87
6262.24
7266.53
7303.3
6980.25
7283.11
6336.38
6467.85
7313.06
7307.91
7302.78
7209.95
5796.86
5921.44
3320.96
3659.87
3209.89
3272.54
3731.83
2633.53
2570.03
2575.02
2546.59
2546.48
2547.7
2723.16
4321.02
4270.52
4270.59
8414.71
8417.49
8422.67
8418.7
8417.78
4270.5
4321.65
4270.57
2723.29
2547.72
2546.48
2546.48
2546.48
2546.75
2970.61
2595.04
2970.37
3508.86
3508.86
3508.84
5118.61
5118.61
5119
5119.18
5118.59
5119.18
5119.18
5118.6
5118.61
5118.99
5118.61
3508.84
2970.39
3508.86
3508.86
2970.61
2595.04
2546.75
2546.48
2546.48
2546.48
2546.48
2546.48
2546.48
2546.59
2841.03
2841.03
4523.04
4523.04
4523.01
6600.93
6600.82
6600.86
6600.82
6600.9
6600.79
6600.79
6600.8
4523
4523.03
4523.03
6600.81
2841.03
2841.03
2546.59
2546.48
2546.48
2546.48
2546.48
2546.48
2546.48
3078.29