# vtk DataFile Version 3.0
Happy Go Lucky
ASCII
DATASET POLYDATA
POINTS 3856 float
0 -0.19698 -1
-0.18024 -0.579663 -0.906127
0 -0.579663 -0.923879
0.18024 -0.579663 -0.906127
-0.37533 -0.392069 -0.906127
-0.191341 -0.392069 -0.961939
0 -0.392069 -0.980785
0.191342 -0.392069 -0.96194
0.37533 -0.392069 -0.906127
-0.382683 -0.19698 -0.923879
-0.19509 -0.19698 -0.980784
0 -0.19698 -0.9
0.19509 -0.19698 -0.980785
0.382683 -0.19698 -0.923879
-0.37533 -0.00189017 -0.906127
-0.191341 -0.00189017 -0.961939
0 -0.00189017 -0.980785
0.191342 -0.00189017 -0.96194
0.37533 -0.00189017 -0.906127
-0.18024 0.185704 -0.906127
0 0.185704 -0.923879
0.18024 0.185704 -0.906127
-0.162211 -0.752554 -0.815493
0 -0.752554 -0.83147
0.162212 -0.752554 -0.815493
-0.353553 -0.579663 -0.853553
-0.162216 -0.541394 -0.815514
0 -0.541394 -0.831491
0.162216 -0.541394 -0.815515
0.353553 -0.579663 -0.853553
-0.544895 -0.392069 -0.815493
-0.337797 -0.37256 -0.815514
-0.172207 -0.37256 -0.865745
0 -0.37256 -0.882707
0.172208 -0.37256 -0.865746
0.337797 -0.37256 -0.815515
0.544895 -0.392069 -0.815493
-0.555569 -0.19698 -0.831469
-0.344414 -0.19698 -0.831491
-0.175581 -0.19698 -0.882706
0 -0.19698 -0.8
0.175581 -0.19698 -0.882707
0.344415 -0.19698 -0.831492
0.55557 -0.19698 -0.831469
-0.544895 -0.00189017 -0.815493
-0.337797 -0.0213991 -0.815514
-0.172207 -0.0213991 -0.865745
0 -0.0213991 -0.882707
0.172208 -0.0213991 -0.865746
0.337797 -0.0213991 -0.815515
0.544895 -0.00189017 -0.815493
-0.353553 0.185704 -0.853553
-0.162216 0.147436 -0.815514
0 0.147436 -0.831491
0.162216 0.147436 -0.815515
0.353553 0.185704 -0.853553
-0.162211 0.35859 -0.815493
0 0.35859 -0.83147
0.162212 0.35859 -0.815493
0 -0.904091 -0.707107
-0.318189 -0.752554 -0.768177
0.31819 -0.752554 -0.768178
-0.14599 -0.696997 -0.733943
0 -0.696997 -0.748323
0.145991 -0.696997 -0.733944
-0.51328 -0.579663 -0.768177
-0.318198 -0.541394 -0.768198
-0.144192 -0.503125 -0.724902
0 -0.503125 -0.739103
0.144192 -0.503125 -0.724902
0.318198 -0.541394 -0.768198
0.51328 -0.579663 -0.768178
-0.490405 -0.37256 -0.733944
-0.300264 -0.353051 -0.724902
-0.153073 -0.353051 -0.769551
0 -0.353051 -0.784628
0.153073 -0.353051 -0.769552
0.300264 -0.353051 -0.724902
0.490406 -0.37256 -0.733944
-0.707106 -0.19698 -0.707106
-0.500012 -0.19698 -0.748322
-0.306146 -0.19698 -0.739103
-0.156072 -0.19698 -0.784627
0 -0.19698 -0.7
0.156072 -0.19698 -0.784628
0.306147 -0.19698 -0.739104
0.500013 -0.19698 -0.748323
0.707107 -0.19698 -0.707107
-0.490405 -0.0213991 -0.733944
-0.300264 -0.040908 -0.724902
-0.153073 -0.040908 -0.769551
0 -0.040908 -0.784628
0.153073 -0.040908 -0.769552
0.300264 -0.040908 -0.724902
0.490406 -0.0213991 -0.733944
-0.51328 0.185704 -0.768177
-0.318198 0.147436 -0.768198
-0.144192 0.109167 -0.724902
0 0.109167 -0.739103
0.144192 0.109167 -0.724902
0.318198 0.147436 -0.768198
0.51328 0.185704 -0.768178
-0.318189 0.35859 -0.768177
-0.14599 0.303035 -0.733943
0 0.303035 -0.748323
0.145991 0.303035 -0.733944
0.31819 0.35859 -0.768178
0 0.510123 -0.707107
-0.270598 -0.904091 -0.653281
-0.13795 -0.904091 -0.69352
0.13795 -0.904091 -0.69352
0.270598 -0.904091 -0.653281
-0.124155 -0.83338 -0.624168
0 -0.83338 -0.636396
0.124155 -0.83338 -0.624168
-0.461939 -0.752554 -0.691341
0.46194 -0.752554 -0.691342
-0.415745 -0.696997 -0.622207
-0.28637 -0.696997 -0.69136
-0.254551 -0.641438 -0.614542
-0.129769 -0.641438 -0.652394
0 -0.641438 -0.665176
0.129769 -0.641438 -0.652394
0.286371 -0.696997 -0.69136
0.254552 -0.641438 -0.614542
0.415746 -0.696997 -0.622207
-0.653281 -0.579663 -0.653281
-0.461952 -0.541394 -0.69136
-0.410624 -0.503125 -0.614542
-0.282843 -0.503125 -0.682842
0.282843 -0.503125 -0.682843
0.461952 -0.541394 -0.69136
0.410624 -0.503125 -0.614542
0.653281 -0.579663 -0.653281
-0.247487 -0.464856 -0.597487
-0.126168 -0.464856 -0.634289
0 -0.464856 -0.646715
0.126168 -0.464856 -0.634289
0.247487 -0.464856 -0.597487
-0.693519 -0.392069 -0.69352
-0.624167 -0.37256 -0.624168
-0.435916 -0.353051 -0.652394
-0.262731 -0.333543 -0.634289
-0.133939 -0.333543 -0.673357
0 -0.333543 -0.68655
0.133939 -0.333543 -0.673358
0.262731 -0.333543 -0.634289
0.435916 -0.353051 -0.652394
0.69352 -0.392069 -0.69352
0.624168 -0.37256 -0.624168
-0.636395 -0.19698 -0.636396
-0.444455 -0.19698 -0.665175
-0.267878 -0.19698 -0.646715
-0.136563 -0.19698 -0.686549
0 -0.19698 -0.6
0.136563 -0.19698 -0.68655
0.267878 -0.19698 -0.646716
0.444456 -0.19698 -0.665176
0.636396 -0.19698 -0.636396
-0.624167 -0.0213991 -0.624168
-0.693519 -0.00189017 -0.69352
-0.435916 -0.040908 -0.652394
-0.262731 -0.0604169 -0.634289
-0.133939 -0.0604169 -0.673357
0 -0.0604169 -0.68655
0.133939 -0.0604169 -0.673358
0.262731 -0.0604169 -0.634289
0.435916 -0.040908 -0.652394
0.624168 -0.0213991 -0.624168
0.69352 -0.00189017 -0.69352
-0.247487 0.0708977 -0.597487
-0.126168 0.0708977 -0.634289
0 0.0708977 -0.646715
0.126168 0.0708977 -0.634289
0.247487 0.0708977 -0.597487
-0.653281 0.185704 -0.653281
-0.410624 0.109167 -0.614542
-0.461952 0.147436 -0.69136
-0.282843 0.109167 -0.682842
0.282843 0.109167 -0.682843
0.410624 0.109167 -0.614542
0.461952 0.147436 -0.69136
0.653281 0.185704 -0.653281
-0.254551 0.247478 -0.614542
-0.129769 0.247478 -0.652394
0 0.247478 -0.665176
0.129769 0.247478 -0.652394
0.254552 0.247478 -0.614542
-0.415745 0.303035 -0.622207
-0.461939 0.35859 -0.691341
-0.28637 0.303035 -0.69136
0.286371 0.303035 -0.69136
0.415746 0.303035 -0.622207
0.46194 0.35859 -0.691342
-0.124155 0.439414 -0.624168
0 0.439414 -0.636396
0.124155 0.439414 -0.624168
-0.270598 0.510123 -0.653281
-0.13795 0.510123 -0.69352
0.13795 0.510123 -0.69352
0.270598 0.510123 -0.653281
-0.213196 -1.01448 -0.514704
-0.110389 -1.01351 -0.553852
-2.73099e-09 -1.01448 -0.557114
0.110348 -1.01352 -0.553581
0.213197 -1.01448 -0.514705
-0.5 -0.904091 -0.5
-0.392847 -0.904091 -0.587938
4.36646e-08 -0.943283 -0.49847
0.392847 -0.904091 -0.587938
0.5 -0.904091 -0.5
-0.353563 -0.83338 -0.529144
-0.243538 -0.83338 -0.587953
0.243538 -0.83338 -0.587953
0.353563 -0.83338 -0.529144
-0.587937 -0.752554 -0.587938
-0.216478 -0.762669 -0.522625
-0.11036 -0.762669 -0.554816
0 -0.762669 -0.565685
0.11036 -0.762669 -0.554816
0.216478 -0.762669 -0.522625
0.587938 -0.752554 -0.587938
-0.529144 -0.696997 -0.529144
-0.369551 -0.641438 -0.553073
0.369552 -0.641438 -0.553073
0.529144 -0.696997 -0.529144
-0.768177 -0.579663 -0.51328
-0.587953 -0.541394 -0.587953
-0.522625 -0.503125 -0.522625
-0.222732 -0.58588 -0.537724
-0.113548 -0.58588 -0.570845
0 -0.58588 -0.582029
0 -0.530321 -0.498882
0.113548 -0.58588 -0.570845
0.222733 -0.58588 -0.537724
0.587953 -0.541394 -0.587953
0.522625 -0.503125 -0.522625
0.768178 -0.579663 -0.51328
-0.359296 -0.464856 -0.537724
-0.212132 -0.426588 -0.512132
-0.108144 -0.426588 -0.543676
-1.09246e-22 -0.426588 -0.554327
0.108144 -0.426588 -0.543676
0.212132 -0.426588 -0.512132
0.359296 -0.464856 -0.537724
-0.815493 -0.392069 -0.544895
-0.554815 -0.353051 -0.554816
-0.381426 -0.333543 -0.570845
-0.225198 -0.314034 -0.543676
-0.114805 -0.314034 -0.577164
0 -0.314034 -0.588471
0.114805 -0.314034 -0.577164
0.225198 -0.314034 -0.543676
0.381427 -0.333543 -0.570845
0.554816 -0.353051 -0.554816
0.815493 -0.392069 -0.544895
-0.831468 -0.19698 -0.55557
-0.748322 -0.19698 -0.500013
-0.565685 -0.19698 -0.565685
-0.333342 -0.19698 -0.498881
-0.388898 -0.19698 -0.582028
-0.22961 -0.19698 -0.554327
-0.117054 -0.19698 -0.588471
-1.32107e-10 -0.19698 -0.5
0.117054 -0.19698 -0.588471
0.22961 -0.19698 -0.554328
0.388899 -0.19698 -0.582029
0.333342 -0.19698 -0.498882
0.565685 -0.19698 -0.565685
0.748323 -0.19698 -0.500013
0.83147 -0.19698 -0.55557
-0.815493 -0.00189017 -0.544895
-0.554815 -0.040908 -0.554816
-0.381426 -0.0604169 -0.570845
-0.225198 -0.0799258 -0.543676
-0.114805 -0.0799258 -0.577164
0 -0.0799258 -0.588471
0.114805 -0.0799258 -0.577164
0.225198 -0.0799258 -0.543676
0.381427 -0.0604169 -0.570845
0.554816 -0.040908 -0.554816
0.815493 -0.00189017 -0.544895
-0.359296 0.0708977 -0.537724
-0.212132 0.0326297 -0.512132
-0.108144 0.0326297 -0.543676
-1.1794e-22 0.0326297 -0.554327
0.108144 0.0326297 -0.543676
0.212132 0.0326297 -0.512132
0.359296 0.0708977 -0.537724
-0.768177 0.185704 -0.51328
-0.522625 0.109167 -0.522625
-0.587953 0.147436 -0.587953
-0.222732 0.19192 -0.537724
-0.113548 0.19192 -0.570845
0 0.136362 -0.498882
0 0.19192 -0.582029
0.113548 0.19192 -0.570845
0.222733 0.19192 -0.537724
0.522625 0.109167 -0.522625
0.587953 0.147436 -0.587953
0.768178 0.185704 -0.51328
-0.369551 0.247478 -0.553073
0.369552 0.247478 -0.553073
-0.529144 0.303035 -0.529144
-0.587937 0.35859 -0.587938
-0.216478 0.368705 -0.522625
-0.11036 0.368705 -0.554816
0 0.368705 -0.565685
0.11036 0.368705 -0.554816
0.216478 0.368705 -0.522625
0.529144 0.303035 -0.529144
0.587938 0.35859 -0.587938
-0.353563 0.439414 -0.529144
-0.243538 0.439414 -0.587953
0.243538 0.439414 -0.587953
0.353563 0.439414 -0.529144
-0.5 0.510123 -0.5
-0.392847 0.510123 -0.587938
0 0.551339 -0.500013
0.392847 0.510123 -0.587938
0.5 0.510123 -0.5
-0.212607 0.634486 -0.513279
-0.108386 0.634486 -0.544895
0 0.634486 -0.55557
0.108386 0.634486 -0.544895
0.212608 0.634486 -0.51328
-0.30958 -1.01421 -0.463224
-0.0855129 -1.01674 -0.460431
-0.000215137 -1.01308 -0.419312
0.0852438 -1.01672 -0.460166
0.309579 -1.01421 -0.463223
-0.279414 -0.938575 -0.416737
-0.190757 -0.943283 -0.460525
-0.0987507 -0.936563 -0.493974
0.0987641 -0.936644 -0.493949
0.190758 -0.943283 -0.460525
0.279413 -0.938579 -0.416733
-0.45 -0.83338 -0.45
-0.170087 -0.86216 -0.410624
1.01002e-07 -0.86216 -0.444456
-0.0867082 -0.862154 -0.435912
0.0867082 -0.862154 -0.435912
0.170087 -0.86216 -0.410624
0.45 -0.83338 -0.45
-0.691341 -0.752554 -0.46194
-0.4 -0.762669 -0.4
-0.314278 -0.762669 -0.47035
0.4 -0.762669 -0.4
0.314278 -0.762669 -0.47035
0.691342 -0.752554 -0.46194
-0.622207 -0.696997 -0.415746
-0.47035 -0.641438 -0.47035
-0.274993 -0.691959 -0.411556
-0.189419 -0.691959 -0.457297
-0.096565 -0.691959 -0.485464
0 -0.691959 -0.494975
[...]
POINT_DATA 3856
SCALARS scalar float
LOOKUP_TABLE default
2546.48
2546.48
2546.48
2546.48
2546.48
2546.48
2546.48
2546.48
2546.48
2546.48
2546.48
2546.48
2546.48
2546.48
2546.48
2546.48
2546.48
2546.48
2546.48
2546.48
2546.48
2546.48
2546.48
2546.48
2546.48
2546.48
2546.48
2546.48
2546.48
2546.48
2546.48
2546.48
2546.48
2546.48
2546.48
2546.48
2546.48
2546.48
2546.48
2546.48
2546.48
2546.48
2546.48
2546.48
2546.48
2546.48
2546.48
2546.48
2546.48
2546.48
2546.48
2546.48
2546.48
2546.48
2546.48
2546.48
2546.48
2546.48
2546.48
2546.48
2546.48
2546.48
2546.48
2546.48
2546.48
2546.48
2546.48
2546.48
2546.48
2546.48
2546.48
2546.48
2546.48
2546.48
2546.48
2546.48
2546.48
2546.48
2546.48
2546.48
2546.48
2546.48
2546.48
2546.48
2546.48
2546.48
2546.48
2546.48
2546.48
2546.48
2546.48
2546.48
2546.48
2546.48
2546.48
2546.48
2546.48
2546.48
2546.48
2546.48
2546.48
2546.48
2546.48
2546.48
2546.48
2546.48
2546.48
2546.48
2546.48
2546.48
2546.48
2546.48
2546.48
2546.48
2546.48
2546.48
2546.48
2546.48
2546.48
2546.48
2546.48
2546.48
2546.48
2546.48
2546.48
2546.48
2546.48
2546.48
2546.48
2546.48
2546.48
2546.48
2546.48
2546.48
2546.48
2546.48
2546.48
2546.48
2546.48
2546.48
2546.48
2546.48
2546.48
2546.48
2546.48
2546.48
2546.48
2546.48
2546.48
2546.48
2546.48
2546.48
2546.48
2546.48
2546.48
2546.48
2546.48
2546.48
2546.48
2546.48
2546.48
2546.48
2546.48
2546.48
2546.48
2546.48
2546.48
2546.48
2546.48
2546.48
2546.48
2546.48
2546.48
2546.48
2546.48
2546.48
2546.48
2546.48
2546.48
2546.48
2546.48
2546.48
2546.48
2546.48
2546.48
2546.48
2546.48
2546.48
2546.48
2546.48
2546.48
2546.48
2546.48
2546.48
2546.48
2546.48
2546.48
2546.48
2546.48
2546.48
2546.48
5100.65
5097.64
5100.65
5097.64
5100.66
2546.48
2546.48
2548.74
2546.48
2546.48
2546.48
2546.48
2546.48
2546.48
2546.48
2546.48
2546.48
2546.48
2546.48
2546.48
2546.48
2546.48
2546.48
2546.48
2546.48
2546.48
2546.48
2546.48
2546.48
2546.48
2546.48
2546.59
2546.48
2546.48
2546.48
2546.48
2546.48
2546.48
2546.48
2546.48
2546.48
2546.48
2546.48
2546.48
2546.48
2546.48
2546.48
2546.48
2546.48
2546.48
2546.48
2546.48
2546.48
2546.48
2546.48
2546.48
2546.48
2546.48
2546.48
2546.48
2546.48
2546.48
2546.64
2546.48
2546.48
2546.48
2546.48
2546.48
2546.48
2546.48
2546.48
2546.48
2546.48
2546.48
2546.48
2546.48
2546.48
2546.48
2546.48
2546.48
2546.48
2546.48
2546.48
2546.48
2546.48
2546.48
2546.48
2546.48
2546.48
2546.48
2546.48
2546.48
2546.48
2546.59
2546.48
2546.48
2546.48
2546.48
2546.48
2546.48
2546.48
2546.48
2546.48
2546.48
2546.48
2546.48
2546.48
2546.48
2546.48
2546.48
2546.48
2546.48
2546.48
2546.48
2546.48
2546.48
2546.48
2546.56
2546.48
2546.48
2546.48
2546.48
2546.48
2546.48
2546.48
5099.36
5115.6
5103.51
5115.38
5099.37
2554.6
2548.77
2555.71
2555.62
2548.77
2554.6
2546.48
2568.26
2568.26
2568.66
2568.64
2568.25
2546.48
2546.48
2546.48
2546.48
2546.48
2546.48
2546.48
2546.48
2546.48
2546.75
2546.75
2546.74
2546.74
2595.03
2595.03
2546.74
2595.03
2546.75
2546.75
2546.48
2546.48
2546.48
2546.48
2546.48
2546.48
2546.59
2546.59
2546.59
2546.59
2546.59
2546.59
2546.48
2546.48
2546.48
2546.48
2546.48
2546.48
2611.07
2611.07
2611.07
2546.48
2546.48
2546.48
2546.48
2546.48
2546.48
2546.48
2555.14
2555.14
2555.14
2555.14
2555.14
2546.48
2546.48
2546.48
2546.48
2546.48
2547.15
2547.15
2547.15
2547.15
2547.15
2547.15
2547.15
2546.48
2546.48
2546.48
2546.64
2546.64
2546.64
2751.4
2546.64
2546.64
2546.64
2546.48
2546.48
2546.48
2546.48
2546.48
2546.48
2546.48
2546.48
2547.15
2555.14
2547.15
2547.15
2555.14
2555.14
2547.15
2555.14
2547.15
2555.14
2547.15
2547.15
2546.48
2546.48
2546.48
2546.48
2546.48
2546.48
2546.48
2611.07
2611.07
2611.07
2546.48
2546.48
2546.48
2546.48
2546.48
2546.48
2546.59
2546.59
2546.59
2546.59
2546.59
2546.59
2546.48
2546.48
2546.48
2546.48
2546.48
2546.75
2546.75
2546.74
2595.03
2595.03
2546.74
2595.03
2546.74
2546.75
2546.75
2546.48
2546.48
2546.48
2546.48
2546.48
2546.48
2546.48
2546.48
2546.48
2546.48
2568.2
2568.2
2568.2
2568.2
2568.2
2546.48
2546.56
2546.56
2546.56
2546.56
2546.56
2546.56
2546.48
2546.48
5099.36
5100.66
5100.76
5110.28
5134.09
5108.57
5679.88
5680.61
5133.83
5108.47
5100.79
5110.3
5100.66
5099.37
2546.48
2548.89
2910.23
2980.72
3200.15
3228.93
2910.48
3200.17
2548.89
2546.48
2546.48
2568.26
2568.53
2568.53
2568.26
2546.48
2546.48
2546.48
2683.15
2683.15
2683.15
2683.16
2683.15
2683.14
2683.15
2546.48
2546.48
2546.48
2546.74
2595.03
2595.03
2970.36
2595.04
2970.37
2970.35
2970.35
2970.36
2595.04
2595.03
2595.03
2546.74
2546.48
2546.48
2546.48
2546.48
2546.59
2841.03
2841.04
2841.03
2841.04
2841.03
2546.59
2546.48
2546.48
2546.48
2546.48
2546.48
2546.48
2611.07
2611.07
3078.33
3078.31
3078.3
3078.31
3078.33
2611.07
2611.07
2546.48
2546.48
2546.48
2546.48
2546.48
2546.48
2546.48
2546.48
2555.14
2862.07
2555.14
2862.07
2862.07
2862.07
2862.07
2862.07
2555.14
2862.07
2555.14
2546.48
2546.48
2546.48
2546.48
2546.48
2547.15
2774.38
2774.39
2774.39
2774.38
2774.39
2774.39
2774.38
2547.15
2546.48
2546.48
2546.48
2546.48
2546.48
2546.64
2751.4
2774.38
2751.4
2774.38
2774.38
2774.38
2751.4
4074.33
2751.4
2774.38
2751.4
2774.38
2751.39
2774.38
2546.64
2546.48
2546.48
2546.48
2546.48
2546.48
2546.48
2546.48
2546.48
2546.48
2546.48
2555.14
2547.15
2555.14
2862.05
2862.05
2862.05
2862.05
2862.05
2862.05
2555.14
2862.05
2555.14
2547.15
2546.48
2546.48
2546.48
2546.48
2546.48
2546.48
2546.48
2546.48
2611.07
3078.29
2611.07
3078.28
3078.26
3078.28
3078.29
2611.07
2611.07
2546.48
2546.48
2546.48
2546.48
2546.48
2546.48
2546.59
2841.03
2841.03
2841.04
2841.04
2841.03
2546.59
2546.48
2546.48
2546.48
2546.48
2595.03
2546.74
2595.03
2595.04
2595.04
2595.03
2595.03
2546.74
2546.48
2546.48
2546.48
2683.15
2970.36
2683.15
2970.37
2970.35
2683.15
2683.16
2970.35
2683.15
2970.36
2683.14
2683.15
2546.48
2546.48
2546.48
2568.2
2568.2
2568.2
2568.2
2546.48
2546.48
2546.56
3197.64
3197.64
3197.64
2546.56
2546.48
2546.48
2546.48
2895.59
2895.59
2895.59
2895.59
2895.59
2546.48
2546.48
2705.27
2705.28
2705.27
2705.27
2705.27
2705.27
2705.27
5100.65
5110.29
5133.96
5718.61
5399.97
5648.45
5533.98
5645.9
5401.64
5717.77
5110.3
5133.99
5100.65
2546.48
2554.6
2939.88
3224.18
3150.95
2995.5
3199.25
3150.72
2996
3199.24
2939.82
3224.77
2554.61
2546.48
2546.48
2568.53
3631.59
3676.68
3631.88
3676.07
3631.79
3676.96
3631.58
2568.53
2546.48
2546.48
2683.15
2683.15
4246.53
4246.6
4246.54
4246.54
4246.56
2683.15
2683.15
2546.48
2546.48
2546.48
2546.75
2595.03
2970.36
3508.85
2970.35
3508.89
3508.86
3508.86
3508.87
3508.85
2970.37
3508.84
3508.85
3508.86
2970.36
2595.03
2546.75
2546.48
2546.48
2546.48
2546.48
2546.59
2841.03
2841.04
2841.03
4523.39
4523.4
4523.4
4523.4
4523.43
2841.03
2841.04
2841.03
2546.59
2546.48
2546.48
2546.48
2546.48
2611.07
3554.19
2611.07
3078.33
3554.17
3554.18
3078.32
5787.1
5787.08
5787.06
3554.19
3554.17
5787.11
5787.09
3554.19
3078.32
3554.19
3554.18
3554.17
2611.07
3078.31
2611.07
2546.48
2546.48
2546.48
2546.48
2862.07
2555.14
2862.07
4401.6
4899.91
4899.96
4401.58
4401.57
4899.94
4899.94
4401.57
4401.58
4899.95
4899.94
4401.58
4899.96
4401.57
4401.58
4401.6
2862.07
2555.14
2862.07
2546.48
2546.48
2547.15
2774.38
4150.15
2774.38
4150.16
4150.16
4150.16
4150.15
4150.15
4150.16
4150.15
2774.39
4150.17
2774.38
2547.15
2546.48
2546.48
2546.48
2546.64
2751.39
2774.38
4150.15
2751.4
4074.32
2774.38
4150.16
4150.16
4074.32
4074.33
4150.16
4150.15
4074.33
4074.32
4150.15
4150.16
4150.15
4074.32
4074.32
2774.38
4150.17
4074.32
2751.39
2774.38
2751.39
2546.64
2546.48
2546.48
2546.48
2546.48
2546.48
2547.15
2555.14
2862.05
2862.05
4401.59
4899.91
4899.96
4401.58
4401.57
4401.57
4401.57
4899.94
4899.94
4401.58
4899.95
4899.94
4899.96
4401.6
4401.57
4401.57
2862.05
2555.14
2862.05
2547.15
2546.48
2546.48
2546.48
2546.48
2611.07
3553.99
2611.07
3078.29
3553.97
3553.98
3078.28
3553.99
3553.98
5787.05
5787.08
5787.07
3554
5787.09
5787.08
3553.99
3553.99
3078.28
3553.97
2611.07
3078.27
2611.07
2546.48
2546.48
2546.48
2546.48
2546.59
2841.03
2841.03
2841.04
4523.01
4523.01
4523
4523.01
4523.04
2841.03
2841.03
2841.04
2546.59
2546.48
2546.48
2546.48
2546.75
2595.03
3508.85
3508.89
3508.86
3508.86
3508.87
3508.85
3508.85
3508.86
3508.84
2595.03
2546.75
2546.48
2546.48
2546.48
2683.15
2970.36
2683.15
2970.35
4246.58
4246.54
4246.51
4246.54
4246.54
2970.37
2970.36
2683.15
2683.15
2546.48
2546.48
2546.48
2568.2
3637.2
3637.22
3637.24
3637.19
3637.2
3637.19
3637.22
2568.2
2546.48
2546.48
2546.56
3197.62
3197.63
3197.62
3197.63
3197.62
3197.62
2546.56
2546.48
2546.48
2895.6
2895.59
2895.59
2895.59
2546.48
2705.28
2705.26
5018.01
2705.27
2705.27
5097.64
5108.58
5399.99
5939.46
6023
6257.7
6172.46
6010.86
6174.85
5954.63
5401.72
5108.37
5097.63
2546.48
2555.71
2548.77
2995.09
3150.87
3199.35
6057.48
5902.22
5922.46
4915.69
6158.91
6356.83
6321.95
4971.7
6356.49
6207.35
6025.14
6167.76
6012.47
3199.13
2996.45
3150.38
2555.59
2548.77
2546.48
2546.48
2568.25
3631.57
3676.63
7178.26
3673.75
7180.35
7175.61
7174.85
7177.38
7180.18
7178.16
7177.6
7174.84
3674.04
3676.93
3631.58
2568.25
2546.48
2546.48
2546.48
2683.15
4246.54
4246.54
4246.51
8376.22
8376.19
8376.19
8376.2
8376.22
8376.2
8376.19
4246.58
4246.54
4246.54
2683.14
2546.48
2546.48
2546.48
2546.48
2546.74
2546.75
2970.36
2595.04
2970.37
3508.86
3508.84
5118.58
5118.6
5118.58
10077.7
10077.7
5118.62
5118.6
5118.6
10077.7
5118.6
5118.62
5118.58
5118.58
5118.6
2970.35
3508.85
3508.86
2970.36
2595.04
2546.74
2546.75
2546.48
2546.48
2546.48
2546.48
2546.48
2546.48
2546.59
2546.59
2841.03
6603.32
4523.4
4523.4
4523.37
6603.31
6603.3
6603.29
6603.28
6603.28
6603.3
6603.31
6603.32
4523.4
4523.4
4523.37
2841.03
2546.59
2546.59
2546.48
2546.48
2546.48
2546.48
2546.48
2546.48
2611.07
3078.32
3554.18
3554.17
3078.32
7413.99
5787.08
5787.07
5787.08
10934.3
7414.04
7414.09
7414.05
7414.09
10934.3
10934.2
10934.3
10934.3
10934.3
10934.3
7414.08
7414.03
7414.04
7413.99
5787.08
5787.07
5787.08
3554.17
3554.18
3078.32
2611.07
3078.33
2546.48
2546.48
2546.48
2546.48
2546.48
2546.48
2546.48
2555.14
2862.07
4401.58
4899.96
4899.95
4401.57
4899.99
4899.99
4401.58
4401.56
4899.91
4899.96
2862.07
2555.14
2546.48
2546.48
2546.48
2546.48
2546.48
2547.15
2547.15
2774.39
4150.15
4150.16
4150.13
4150.15
2774.39
2547.15
2547.15
2546.48
2546.48
2546.48
2546.48
2546.64
2546.64
2774.38
2751.4
4150.16
4150.15
4074.32
4074.33
4150.15
4150.13
4074.32
4074.31
2774.38
2751.4
2546.64
2546.64
2546.48
2546.48
2546.48
2546.48
2546.48
2546.48
2546.48
2546.48
2546.48
2547.15
2547.15
2555.14
2862.05
4401.57
4401.57
4899.96
4899.95
4899.99
4899.99
4401.57
4401.56
4899.96
4899.91
2862.05
2547.15
2547.15
2555.14
2546.48
2546.48
2546.48
2546.48
2546.48
2546.48
2546.48
3078.28
2611.07
3078.28
3553.99
3553.98
5787.06
5787.07
5787.07
7413.98
7414.02
7414.08
7414.07
7414.03
10934.1
10934
10934.1
10934.1
7414.03
7414.06
7414.02
10934.1
10934.1
10934.1
5787.07
5787.06
5787.07
7413.98
3078.28
3553.97
3553.99
3078.29
2611.07
2546.48
2546.48
2546.48
2546.48
2546.48
2546.48
2546.59
2546.59
2841.03
6600.7
4523.01
4522.98
4523.01
6600.7
6600.68
6600.66
6600.68
6600.66
6600.68
6600.7
6600.7
4522.98
4523.01
4523.01
2841.03
2546.59
2546.59
2546.48
2546.48
2546.48
2546.48
2546.48
2546.74
2546.75
2595.04
3508.86
3508.84
5118.58
5118.58
5118.6
5118.6
5118.62
5118.59
10088.9
10088.9
5118.62
5118.6
10088.9
5118.58
5118.6
5118.58
3508.85
3508.86
2595.04
2546.74
2546.75
2546.48
2546.48
2546.48
2546.48
2970.36
2683.15
2970.37
4246.54
4246.54
4246.49
8376.19
8376.22
8376.19
8376.2
8376.22
8376.19
8376.19
4246.54
4246.56
4246.54
2970.35
2970.36
2683.14
2546.48
2546.48
2546.48
2546.48
2568.2
3637.2
3637.22
3637.17
7164.64
7164.75
7164.67
7164.71
7164.75
7164.67
7164.75
7164.71
7164.64
3637.17
3637.22
3637.2
2568.2
2546.48
2546.48
2546.56
2546.56
3197.63
3197.62
6271.62
6271.65
6271.62
6271.62
6271.66
6271.65
6271.62
6271.62
6271.62
3197.62
3197.63
2546.56
2546.56
2546.48
2546.48
2895.58
2895.59
5583.38
5583.42
5583.38
5583.35
5583.38
5583.4
5583.37
5583.35
5583.36
5583.37
5583.38
2895.59
2895.59
2546.48
2705.27
5017.98
5017.98
5017.93
5017.98
5017.99
5017.98
5017.99
5017.98
5017.98
5017.93
2705.27
5100.65
5115.6
5103.49
5679.5
5648.29
5536.08
6014.94
6172.44
6263.3
5205.24
6018.28
6234.02
6171.96
5646.13
5530.6
5680.22
5115.28
5103.48
5100.65
2546.48
2548.74
2980.82
2910.22
3200.16
3228.93
4919.23
6356.15
6168.03
6322.17
2754.23
4954.91
6205.65
6357.2
6319.77
3200.04
3228.82
2910.39
2980.78
2548.74
2546.48
2546.48
2568.66
2568.26
3676.05
3631.85
7175.6
7174.82
7180.28
7177.33
2742.94
2791.8
7175.8
7177.61
7180.23
7174.96
3631.8
3675.91
2568.64
2568.26
2546.48
2546.48
2546.48
2683.15
2683.15
4246.54
4246.6
4246.53
8376.19
8376.19
8376.22
8376.2
8376.23
2703.63
8376.23
8376.22
8376.2
8376.19
8376.19
4246.56
4246.54
4246.53
2683.15
2683.16
2546.48
2546.48
2546.48
2546.48
2595.03
2595.03
2546.75
2970.35
2970.35
3508.86
3508.87
5118.62
5118.6
5118.6
10077.7
10077.7
10077.7
10077.7
10077.7
10077.7
10077.7
2678.58
10077.7
10077.7
10077.7
10077.7
10077.7
10077.7
10077.7
5118.62
5118.6
5118.6
3508.87
3508.85
2970.37
2970.35
2595.03
2595.03
2546.75
2546.48
2546.48
2546.48
2546.48
2546.48
2546.48
2546.59
2841.04
2841.03
4523.4
4523.43
4523.4
6603.28
6603.3
6603.31
6603.29
12780
12780
12780
12780
4179.23
12780
12780
12780
12780
12780
12780
12780.1
12780
12780
12780
12780
12780
12780
6603.31
6603.3
6603.28
6603.29
4523.43
4523.39
4523.35
2841.04
2841.03
2546.59
2546.48
2546.48
2546.48
2546.48
2546.48
2546.48
2611.07
2611.07
3078.31
3078.3
3554.19
3554.17
5787.06
5787.08
5787.1
10934.3
7414.04
7414.04
7414.09
7414.09
10934.3
10934.3
10934.2
19065.7
19065.6
19065.7
19065.6
19065.7
19065.6
19065.6
10934.3
13943.2
19065.6
19065.7
10934.3
10934.3
19065.6
19065.6
19065.6
19065.5
19065.5
19065.5
19065.6
19065.6
5787.1
10934.3
10934.3
10934.3
7414.04
7414.03
7414.05
7414.08
5787.1
5787.07
3554.19
3554.17
3078.31
3078.3
2611.07
2611.07
2546.48
2546.48
2546.48
2546.48
2546.48
2546.48
2546.48
2555.14
2555.14
2862.07
2862.07
4899.94
4899.94
4401.58
4401.58
4899.94
4899.94
4401.58
4401.57
2862.07
2862.07
2555.14
2555.14
2546.48
2546.48
2546.48
2546.48
2546.48
2547.15
2774.39
2774.38
4150.17
4150.16
4150.15
4150.15
2774.39
2774.38
2547.15
2546.48
2546.48
2546.48
2546.48
2546.48
2546.64
2751.4
4074.32
2751.4
2774.38
2774.38
4074.33
4150.16
4150.17
4074.32
4074.33
4150.15
4150.15
2774.38
2774.38
2751.4
2751.4
2546.64
2546.48
2546.48
2546.48
2546.48
2546.48
2546.48
2546.48
2546.48
2546.48
2546.48
2547.15
2555.14
2555.14
2862.05
2862.05
4401.58
4899.94
4899.94
4401.58
4401.57
4401.57
4899.94
4899.94
2862.05
2862.05
2547.15
2555.14
2555.14
2546.48
2546.48
2546.48
2546.48
2546.48
2546.48
2546.48
2611.07
2611.07
3078.28
3078.26
5787.04
5787.06
5787.09
3553.98
3554
7414.08
7414.02
10934.1
10934.1
10934.1
10934
7414.03
7414.07
19066.6
19066.6
19066.6
19066.6
19066.6
19066.6
19066.6
19066.6
19066.6
10934.1
19066.5
19066.6
19066.5
19066.5
19066.6
19066.6
19066.5
19066.5
10934.1
10934.1
5787.09
7414.02
7414.07
7414.03
10934.1
10934.1
10934.1
7414.04
3553.97
3554
5787.06
5787.09
3078.26
3078.27
2611.07
2611.07
2546.48
2546.48
2546.48
2546.48
2546.48
2546.48
2546.59
2841.03
2841.04
4523.01
4523.01
4523.04
6600.68
6600.7
6600.68
6600.66
12877.8
12877.8
12877.8
12877.7
13935.6
12877.8
12877.7
12877.8
12877.8
12877.8
12877.8
12877.7
12877.8
12877.8
12877.8
12877.8
12877.7
12877.8
6600.68
6600.7
6600.68
6600.66
4522.97
4523.04
4523.01
2841.04
2841.03
2546.59
2546.48
2546.48
2546.48
2546.48
2546.48
2595.03
2595.03
2546.75
3508.86
3508.87
5118.59
5118.62
5118.6
10088.9
10088.9
4185.71
10088.9
10088.9
10088.8
10088.9
10088.9
10088.9
10088.9
10088.9
10088.8
10088.9
10088.9
10088.9
5118.6
5118.59
5118.62
3508.85
3508.87
2595.03
2595.03
2546.75
2546.48
2546.48
2546.48
2546.48
2683.15
2970.35
2970.35
2683.15
4246.58
4246.54
4246.51
8376.19
8376.19
8376.22
8376.2
2547.75
8376.23
8376.22
8376.23
8376.2
8376.19
8376.19
4246.54
4246.54
4246.51
2683.15
2683.16
2970.37
2970.35
2546.48
2546.48
2546.48
2546.48
2568.2
2568.2
3637.24
3637.19
7164.71
7164.67
7164.75
7164.75
2546.48
7164.75
7164.67
7164.71
7164.75
3637.19
3637.24
2568.2
2568.2
2546.48
2546.48
2546.56
3197.64
3197.64
6271.65
6271.62
6271.62
6271.66
2546.48
6271.66
6271.62
6271.65
6271.62
3197.64
3197.64
2546.56
2546.48
2546.48
2895.59
2895.59
5583.35
5583.38
5583.39
2546.48
5583.38
5583.39
5583.34
2895.59
2895.59
2546.48
2705.27
2705.27
5018.01
5017.98
5017.99
2546.48
5018.01
5017.99
5017.98
2705.27
2705.27
5092.96
5115.39
5680.31
5646.87
6175.88
5999.51
6007.34
6025.98
5977.77
6172.83
5650.16
5679.94
5115.64
2555.63
2910.3
3200.2
6218.72
6355.83
4975.8
6049.02
4894.43
6356.98
6121.94
5854.57
3199.92
2909.75
2555.75
2568.65
3676.9
3631.73
7174.77
7177.49
7180.11
7178.17
7178.37
7180.48
7177.5
7175.11
3676.34
3631.91
2568.67
2683.15
4246.6
4246.54
8376.22
8376.2
8376.19
8376.22
8376.23
8376.22
8376.23
8376.22
8376.2
8376.19
4246.54
4246.56
2683.15
2595.03
2546.74
2970.37
3508.86
5118.62
5118.6
10077.7
10077.7
10077.7
10077.7
10077.7
10077.7
10077.7
10077.7
10077.7
10077.7
10077.7
10077.7
10077.7
10077.7
10077.7
5118.62
5118.6
3508.86
2970.35
2546.74
2595.03
2546.59
2841.04
4523.38
4523.4
6603.3
6603.28
6603.31
12780
12780
12780
12780
12780
12780
12780
12780.1
12780
12780
12780
12780
12780
12780
12780
6603.3
6603.31
6603.28
4523.39
4523.43
2841.04
2546.59
2611.07
3078.31
5787.08
5787.1
3554.19
7414.09
7414.09
7414.04
10934.3
10934.2
10934.3
19065.6
19065.7
19065.6
19065.7
19065.6
19065.7
19065.7
19065.7
10934.2
10934.3
19065.7
19065.6
19065.7
19065.6
19065.7
19065.6
19065.7
10934.2
10934.2
10934.3
7414.03
7414.04
10934.2
10934.3
7414.08
5787.11
3554.19
5787.09
3078.31
2611.07
2555.14
2862.07
4899.94
4899.91
4401.58
4899.95
4899.94
4401.58
2862.07
2555.14
2547.15
2774.39
4150.16
4150.15
2774.39
2547.15
2546.64
2751.4
2774.38
4074.33
4150.16
4074.33
4150.15
2751.4
2774.38
2546.64
2547.15
2555.14
2862.05
4401.58
4899.94
4899.91
4401.58
4899.95
4899.94
2862.05
2555.14
2547.15
2611.07
3078.27
3553.99
5787.07
5787.08
10934.1
10934
10934.1
7414.08
7414.08
7414.03
10934.1
10934
19066.6
19066.6
19066.6
19066.6
19066.6
19066.6
19066.6
19066.6
10934
10934
10934.1
19066.6
19066.6
19066.6
19066.6
19066.6
19066.6
19066.6
10934.1
10934
7414.02
7414.03
7414.06
5787.1
5787.08
3554
3078.28
2611.07
2546.59
2841.04
4523
4523.01
6600.7
6600.68
6600.66
12877.7
12877.8
12877.8
12877.7
12877.8
12877.8
12877.8
12877.8
12877.8
12877.7
12877.8
12877.8
12877.8
12877.7
12877.8
6600.7
6600.66
6600.68
4523.01
4523.04
2841.04
2546.59
2546.74
2595.03
3508.86
5118.6
5118.62
10088.9
10088.9
10088.8
10088.9
10088.9
10088.9
10088.9
10088.9
10088.9
10088.9
10088.9
10088.9
10088.9
10088.9
10088.8
5118.62
5118.6
3508.85
2546.74
2595.03
2970.37
2683.15
4246.58
4246.54
8376.19
8376.22
8376.19
8376.22
8376.23
8376.22
8376.22
8376.23
8376.19
8376.19
4246.54
4246.54
2683.15
2970.35
2568.2
3637.2
3637.19
7164.71
7164.75
7164.67
7164.64
7164.64
7164.75
7164.71
7164.67
3637.2
3637.19
2568.2
2546.56
3197.64
6271.62
6271.62
6271.65
6271.65
6271.62
6271.62
3197.64
2546.56
2895.59
5583.38
5583.34
5583.38
5583.38
5583.34
5583.38
2895.59
2705.27
5017.99
5017.98
5017.99
5017.98
2705.27
5097.64
5108.48
5133.42
5401.41
5955.05
6267.01
6170.38
6182.08
5946.74
5397.11
5133.96
5108.54
5097.62
2546.48
2548.77
2995.52
3149.71
3199.43
6162.59
5963.84
4946.04
6357.62
6179.25
6316.36
4930.28
6357.99
6069.84
6268.25
6113.42
2994.85
3151.15
3199.32
2548.77
2546.48
2546.48
2568.26
3631.55
3674
7175.87
7174.86
7180.41
7177.56
7180.46
7174.84
7177.6
3673.44
3631.55
2568.25
2546.48
2546.48
2546.48
2683.15
4246.54
4246.54
4246.54
8376.19
8376.19
8376.2
8376.19
8376.19
4246.54
4246.54
4246.54
2683.15
2546.48
2546.48
2546.48
2546.48
2546.75
2970.36
2595.04
2970.35
3508.86
3508.86
3508.84
5118.58
5118.6
5118.58
5118.6
5118.6
5118.62
5118.6
5118.62
5118.58
5118.6
5118.58
3508.84
2970.37
3508.86
3508.86
2970.36
2595.04
2546.75
2546.48
2546.48
2546.48
2546.48
2546.48
2546.48
2546.59
2841.03
2841.03
6603.32
4523.4
4523.4
4523.37
6603.31
6603.28
6603.3
6603.29
6603.3
6603.28
6603.31
4523.4
4523.4
6603.32
4523.37
2841.03
2841.03
2546.59
2546.48
2546.48
2546.48
2546.48
2546.48