# vtk DataFile Version 3.0
Happy Go Lucky
ASCII
DATASET POLYDATA
POINTS 14290 float
-0.65071 0.671044 -0.701727
-0.608615 0.653095 -0.71947
-0.642889 0.694244 -0.717758
-0.609698 0.671691 -0.733426
-0.632074 0.667982 -0.725813
-0.636155 0.64023 -0.70853
-0.621465 0.694495 -0.740239
-0.593322 0.669742 -0.723833
-0.580998 0.688371 -0.717214
-0.593131 0.685881 -0.740028
-0.624625 0.798829 -0.75193
-0.615608 0.752532 -0.754049
-0.643899 0.76481 -0.718323
-0.636441 0.718321 -0.72818
-0.609724 0.77786 -0.761941
-0.632798 0.744861 -0.734961
-0.646386 0.715274 -0.708477
-0.641824 0.793026 -0.728516
-0.644711 0.737199 -0.712642
-0.619347 0.725532 -0.748614
-0.629212 0.771834 -0.742724
-0.569259 0.760382 -0.727247
-0.573994 0.728044 -0.755412
-0.567835 0.748982 -0.746613
-0.575414 0.707191 -0.737087
-0.573 0.743031 -0.70678
-0.571595 0.792631 -0.726609
-0.584143 0.778038 -0.771401
-0.566761 0.772333 -0.750915
-0.597515 0.737131 -0.760513
-0.59666 0.710312 -0.752965
-0.57533 0.715409 -0.711401
-0.570376 0.733509 -0.73072
-0.577352 0.752505 -0.765503
-0.59739 0.759351 -0.764638
-0.573741 0.771539 -0.70248
-0.63806 0.81596 -0.740309
-0.608588 0.89109 -0.736168
-0.623368 0.857082 -0.758722
-0.623249 0.827402 -0.758072
-0.65954 0.86464 -0.732596
-0.693096 0.897633 -0.710263
-0.679273 0.875376 -0.718179
-0.654047 0.818507 -0.71993
-0.635952 0.89746 -0.741764
-0.622499 0.882288 -0.755512
-0.6437 0.872357 -0.748165
-0.660124 0.888196 -0.735579
-0.626959 0.898404 -0.712639
-0.645039 0.842801 -0.740479
-0.666297 0.846339 -0.717428
-0.606042 0.88128 -0.713565
-0.597499 0.860515 -0.703272
-0.568235 0.801327 -0.758411
-0.598522 0.842882 -0.768264
-0.591879 0.868628 -0.728737
-0.578564 0.850181 -0.747506
-0.582158 0.842985 -0.719523
-0.57691 0.818569 -0.713749
-0.57483 0.827874 -0.763738
-0.59866 0.807831 -0.770823
-0.573236 0.822755 -0.737917
-0.597992 0.872383 -0.757298
-0.650236 0.90788 -0.725971
-0.673401 0.904761 -0.720419
-0.653388 0.908435 -0.701488
-0.640801 0.587853 -0.655773
-0.680363 0.577384 -0.620206
-0.620522 0.590006 -0.615586
-0.662189 0.578122 -0.641751
-0.631212 0.568698 -0.605262
-0.635662 0.575131 -0.632132
-0.656634 0.558651 -0.619765
-0.620586 0.595222 -0.640514
-0.600892 0.630242 -0.606161
-0.605373 0.636274 -0.696287
-0.648844 0.623972 -0.689991
-0.625511 0.616366 -0.689569
-0.682823 0.60178 -0.610468
-0.684349 0.683887 -0.605085
-0.683788 0.663498 -0.600794
-0.680672 0.645147 -0.610782
-0.600546 0.635102 -0.653251
-0.664429 0.600551 -0.658155
-0.600501 0.634041 -0.631818
-0.672585 0.69784 -0.643045
-0.672013 0.670394 -0.641829
-0.66746 0.648364 -0.658514
-0.662315 0.678775 -0.669933
-0.658555 0.647291 -0.685545
-0.620732 0.602142 -0.666029
-0.677787 0.685445 -0.62521
-0.678512 0.665806 -0.619725
-0.678433 0.623554 -0.622747
-0.674741 0.646169 -0.633652
-0.677116 0.600355 -0.634976
-0.645538 0.605161 -0.675671
-0.6635 0.623826 -0.671595
-0.61008 0.611788 -0.623227
-0.672466 0.623783 -0.64724
-0.609111 0.616469 -0.647548
-0.606538 0.623738 -0.671189
-0.593218 0.654471 -0.64543
-0.586132 0.677732 -0.663977
-0.585589 0.687454 -0.617157
-0.58087 0.696576 -0.690318
-0.595341 0.648071 -0.671257
-0.589643 0.665378 -0.69786
-0.58331 0.697736 -0.64161
-0.587282 0.674938 -0.636815
-0.59157 0.657693 -0.61663
-0.70089 0.762752 -0.613982
-0.714198 0.786198 -0.613727
-0.690836 0.737832 -0.615541
-0.681143 0.769974 -0.653373
-0.672324 0.745356 -0.657079
-0.691509 0.793836 -0.652887
-0.664084 0.716726 -0.666751
-0.676328 0.784775 -0.669995
-0.667476 0.763887 -0.674486
-0.661903 0.741283 -0.676631
-0.653668 0.727269 -0.691648
-0.660958 0.788922 -0.696575
-0.654715 0.753789 -0.694675
-0.653361 0.700376 -0.692622
-0.6862 0.753529 -0.635021
-0.683761 0.709001 -0.615957
-0.696784 0.778405 -0.633289
-0.677532 0.72678 -0.638567
-0.575912 0.752378 -0.681946
-0.586055 0.765431 -0.631447
-0.593861 0.769165 -0.60698
-0.585239 0.746035 -0.613042
-0.586907 0.785567 -0.64934
-0.576833 0.725062 -0.686471
-0.578171 0.779869 -0.675673
-0.581222 0.708677 -0.665269
-0.583135 0.717452 -0.620597
-0.580074 0.759949 -0.656755
-0.58196 0.740753 -0.638654
-0.581615 0.719978 -0.645946
-0.597438 0.788097 -0.623582
-0.579442 0.734566 -0.66275
-0.704463 0.818871 -0.655539
-0.771252 0.875239 -0.630266
-0.710972 0.859327 -0.681853
-0.700969 0.889529 -0.625861
-0.742757 0.89298 -0.663686
-0.733739 0.865733 -0.668145
-0.71928 0.842973 -0.661859
-0.757067 0.826278 -0.618037
-0.723278 0.885255 -0.683193
-0.702712 0.878165 -0.6999
-0.732493 0.808043 -0.615075
-0.759467 0.847336 -0.638339
-0.731438 0.828767 -0.638426
-0.756297 0.869681 -0.654595
-0.740473 0.85039 -0.652646
-0.71098 0.802846 -0.634007
-0.751485 0.889323 -0.640415
-0.745684 0.887278 -0.615705
-0.716748 0.884879 -0.610068
-0.78193 0.847835 -0.616847
-0.60134 0.809902 -0.640755
-0.608503 0.855781 -0.678864
-0.613524 0.80866 -0.613164
-0.624242 0.856413 -0.65544
-0.604731 0.832988 -0.660382
-0.649679 0.84643 -0.61011
-0.680435 0.883403 -0.631739
-0.644294 0.86016 -0.635063
-0.623326 0.834813 -0.630106
-0.695921 0.834563 -0.677346
-0.682925 0.807757 -0.674121
-0.688141 0.852765 -0.698447
-0.673801 0.824877 -0.69661
-0.615666 0.877716 -0.693354
-0.645643 0.879053 -0.658751
-0.671002 0.892554 -0.652177
-0.661027 0.876329 -0.639111
-0.66663 0.866154 -0.619822
-0.625619 0.872405 -0.673634
-0.636731 0.891406 -0.684552
-0.690919 0.874811 -0.6114
-0.588862 0.8319 -0.690737
-0.577197 0.800715 -0.695909
-0.588103 0.807233 -0.668541
-0.716075 0.90723 -0.665232
-0.705215 0.904073 -0.690838
-0.724848 0.899221 -0.635851
-0.695766 0.899773 -0.644897
-0.660932 0.901838 -0.67526
-0.687438 0.909178 -0.668903
-0.679981 0.912941 -0.695425
-0.704634 0.574134 -0.522258
-0.705089 0.549798 -0.539849
-0.704193 0.595392 -0.503214
-0.712203 0.522539 -0.502761
-0.711099 0.548031 -0.513497
-0.703668 0.52459 -0.527678
-0.612271 0.590323 -0.549688
-0.623801 0.564356 -0.541983
-0.620899 0.559736 -0.513332
-0.682816 0.555526 -0.597248
-0.639804 0.543082 -0.560566
-0.633994 0.537425 -0.502154
-0.694183 0.509499 -0.512793
-0.699688 0.576865 -0.549861
-0.612146 0.598933 -0.575132
-0.693845 0.578583 -0.577453
-0.63656 0.540404 -0.530645
-0.688978 0.527317 -0.550692
-0.696649 0.551168 -0.567576
-0.688206 0.582981 -0.5991
-0.620048 0.586803 -0.593645
-0.659303 0.526007 -0.544941
-0.678349 0.514821 -0.528253
-0.653246 0.521671 -0.517621
-0.625409 0.570543 -0.574091
-0.672512 0.508958 -0.504046
-0.669598 0.535298 -0.57207
-0.64746 0.54783 -0.591248
-0.609887 0.583719 -0.522563
-0.701013 0.636149 -0.523669
-0.709666 0.694142 -0.534429
-0.703263 0.619448 -0.506894
-0.71591 0.690322 -0.512828
-0.70685 0.666727 -0.521473
-0.688843 0.62601 -0.574295
-0.686176 0.647439 -0.587995
-0.688187 0.602594 -0.586748
-0.690994 0.674814 -0.579608
-0.698766 0.651135 -0.541502
-0.699208 0.604764 -0.530535
-0.694614 0.628576 -0.548772
-0.610928 0.606742 -0.598825
-0.699733 0.673012 -0.550329
-0.692465 0.650303 -0.563572
-0.693349 0.602759 -0.561032
-0.601395 0.623488 -0.580492
-0.683747 0.62435 -0.598815
-0.60079 0.615755 -0.555323
-0.587488 0.667615 -0.56832
-0.583734 0.680827 -0.52471
-0.59936 0.608409 -0.529802
-0.590202 0.627402 -0.510562
-0.592599 0.641633 -0.561504
-0.585395 0.689005 -0.575517
-0.592698 0.649055 -0.587448
-0.587151 0.675318 -0.593102
-0.597576 0.602139 -0.504155
-0.586142 0.661204 -0.542888
-0.584456 0.68991 -0.551271
-0.590849 0.634248 -0.53607
-0.58538 0.654277 -0.516967
-0.74251 0.770505 -0.562835
-0.720676 0.758286 -0.575181
-0.707488 0.729868 -0.572544
-0.702074 0.699778 -0.56127
-0.750596 0.789157 -0.57871
-0.70489 0.747862 -0.594563
-0.716762 0.77096 -0.595011
-0.789889 0.780397 -0.538139
-0.759128 0.760726 -0.537291
-0.736604 0.736304 -0.525687
-0.72299 0.711766 -0.51838
-0.728602 0.747716 -0.551498
-0.716218 0.720825 -0.543346
-0.732579 0.790606 -0.595815
-0.786177 0.76136 -0.515212
-0.762077 0.742524 -0.509679
-0.741874 0.722722 -0.501758
-0.768796 0.783815 -0.55935
-0.731829 0.776809 -0.580626
-0.799203 0.788739 -0.510488
-0.613286 0.784279 -0.574159
-0.693395 0.704133 -0.588531
-0.636082 0.782668 -0.510457
-0.695707 0.725895 -0.597268
-0.610043 0.761115 -0.534616
-0.618613 0.763189 -0.510452
-0.603033 0.743071 -0.516502
-0.618849 0.779408 -0.549232
-0.602634 0.761241 -0.563018
-0.606624 0.787983 -0.598663
-0.601417 0.771422 -0.586394
-0.623662 0.776052 -0.527913
-0.635715 0.79217 -0.535264
-0.630181 0.798435 -0.560833
-0.591431 0.721732 -0.523863
-0.585083 0.710419 -0.57123
-0.589518 0.73579 -0.567022
-0.585427 0.70245 -0.530988
-0.596651 0.740536 -0.541813
-0.585486 0.727627 -0.592461
-0.586352 0.701112 -0.509712
-0.587093 0.717329 -0.547315
-0.584797 0.701361 -0.594899
-0.59204 0.752503 -0.588153
-0.788195 0.827975 -0.546249
-0.778351 0.845936 -0.56243
-0.751923 0.834975 -0.51997
-0.765756 0.841587 -0.541022
-0.712034 0.845018 -0.54591
-0.774812 0.803493 -0.57892
-0.707097 0.867915 -0.589878
-0.778801 0.823894 -0.598154
-0.754386 0.806982 -0.59731
-0.724635 0.837036 -0.521463
-0.792316 0.802663 -0.556847
-0.795052 0.808059 -0.529816
-0.775993 0.824847 -0.523633
-0.764741 0.81872 -0.501046
-0.727938 0.860662 -0.56665
-0.755699 0.85604 -0.559358
-0.739605 0.84836 -0.541096
-0.751197 0.867119 -0.576678
-0.735683 0.876292 -0.590953
-0.766604 0.871772 -0.596978
-0.76842 0.859702 -0.575597
-0.784714 0.808886 -0.508878
-0.785865 0.849697 -0.586824
-0.710152 0.824411 -0.501812
-0.793445 0.825878 -0.573305
-0.67646 0.840971 -0.572235
-0.664671 0.826481 -0.560999
-0.623002 0.803892 -0.586649
-0.657734 0.80248 -0.517181
-0.677433 0.854897 -0.593806
-0.697533 0.851421 -0.569799
-0.673817 0.820216 -0.535694
-0.657237 0.835182 -0.584951
-0.686804 0.836247 -0.551824
-0.698316 0.830519 -0.527368
-0.650489 0.810032 -0.547069
-0.634287 0.824693 -0.599548
-0.64312 0.816636 -0.573398
-0.684287 0.815768 -0.5092
0.077206 -0.719036 -0.412618
0.0569922 -0.740412 -0.401056
0.0876076 -0.745435 -0.40134
0.0130391 -0.717278 -0.408029
0.0442158 -0.713499 -0.411902
0.111506 -0.719451 -0.407743
0.137796 -0.705173 -0.403498
[...]
POINT_DATA 14290
SCALARS scalar float
LOOKUP_TABLE default
20199.6
20871.1
22152.3
22022.2
20681.7
20090.4
22840.6
21973.6
22965.3
22250.7
21536.2
25076.9
20858.6
23723.7
23507.9
23656.8
23038.1
19478.2
23083.2
24208.3
22553
24637.1
22745.6
24610.2
23134
23934.4
22167.8
21253.4
22835
25252.6
23510
24272.5
25400.6
23027.1
25038.5
21716.6
20508.1
21415.3
22173.4
21117.3
24260.4
22310.1
24381.1
18799
22019.3
21034.7
23530.9
23864.2
23862.2
22364.7
21654.8
23521.7
22368.7
19305
19111.9
22401.6
19641.8
21463.4
20441.4
17691.4
19787.2
21105.6
19196.3
30104.5
32491.1
34418.8
23910.6
22159
24915.4
22275.8
21762.1
23063.5
19624.2
25642.8
23375.5
21278.6
21770.4
21957.9
25728.7
24058.6
25400.6
26333.7
24750.9
23904.1
24562.7
21051.9
22844.6
23214.9
19700.5
21019.9
23962.8
23446.4
25282.6
26632.6
25520.6
24913.7
23503.7
23364.3
25593.1
25511.1
26111.9
24119.4
23054.5
21458.1
22647.4
22270.9
22778.3
21778
22391.3
22252.6
22666.1
23318.4
23096.5
22378.2
22451
22166.6
21438.6
20631.3
20836.6
21690.3
22124.7
22405.7
18448.2
21641.1
20992.2
22703.3
22313.5
22741.3
21502.6
22142.2
22841.9
23738.8
23470.3
20576.3
22885.6
20185.8
22296.9
23066.7
22233.9
23316.4
23036.6
21790.9
22963.8
20829.8
18804.4
23711.3
24344
20282.3
23860.2
22970.2
22155.3
22758.8
23589.8
22176
21493.2
21890
20938.6
23405.5
21471.4
21242.9
22085.1
23065.8
18830.8
18693.9
20654.1
20315.6
19847
17987.2
20173.1
24618.6
20764.6
18142
20831.7
19576.1
22188.6
18654.6
23525
23109.2
24700.8
23460.5
22462.2
22357.8
23967.2
23348.9
19268.2
19362.7
18440.8
32041.9
33243.2
29345.9
33959.1
34876
36069.7
35360.6
20851.5
20930.1
20717.4
21802.8
22208.1
21586.4
20125.7
18959.6
19947
18941.4
18150.9
21108.6
22142.4
20558.8
21814.3
21672.2
19657.8
19953.7
19194.5
23073.1
23047.3
20102.5
22200.9
21925.3
20128.7
23243.6
18327.1
18206.5
20326.1
20739.6
20755.7
20354.5
21675.9
20978.8
23813.8
25121.1
24274.8
22956.5
21565.9
20384.6
21789.1
23876.7
21312.4
22940.7
21800.7
22278.3
25945.6
21314.6
23009.9
22814.5
21148.4
21706.6
21964.7
23712.7
22335.9
22865
22139.6
22501.1
24121.7
21511.7
21394.6
21326.8
21975.3
20262.5
20099.4
23518.9
22564.4
23670.9
19794.6
19136.8
19008.9
21076.6
19244.1
19418
23586.1
19777.6
20256.3
21571.4
22061.7
23207.1
19293
24164.6
21526.5
22368
21697.3
23952.1
22726.5
23283.7
24169.9
24317.3
23258.9
24298.5
23487.3
23081.1
23416.2
23957.4
24010.5
23855.6
24091
24143.3
23403
22580.8
24409.1
23262.3
23951.8
23646.1
24898
23035.5
25122.6
21932.2
23258.4
22202
21949.5
23494.7
21679.7
21402.8
21549
23951.4
21669.9
22903.5
25012
23326.6
24025.9
22775.9
22165.4
24558.9
21824.3
21666.6
21265.1
21348.8
21991.1
22279.1
22459.7
21728.1
21751.4
21827.1
21760.8
21422.3
21978.2
21425.7
22461.8
20189.8
22222.8
21363.2
18998.2
19108.6
17449.8
21042.9
20469.4
18611.4
19241.6
20999.1
22211
21373.3
22542.1
20566.5
20100.9
19864.8
22700.7
20577.1
20374.2
21295.1
20108.9
21448.5
25285.3
24887.8
24290.5
23908.6
23822.3
23636.3
22009.1
23211.9
23957.6
21841.7
20745.1
20462.3
23663.7
23369.2
20890.1
22213.4
21252.2
22001
25249.1
21053.2
20100.7
22145.3
21233.6
21206.2
19887.7
19159.4
21728.8
20074.3
19961
20075.7
21827.5
22070.5
20235.4
21459.3
20496.2
19441.8
19734.3
21275.4
23544
25036.5
24140.5
24897.6
21541.2
24913
23757
24942.3
22170.9
20227.4
21725.8
23902.2
24328.3
22815.1
23269.5
20531.7
21689.2
23476.2
23508.6
21970.9
18485
19875.9
22582.2
19168.2
21831.3
22692.3
22121
25230.3
22718.1
25820.8
20248.8
23199.8
23773.4
20157.5
20764.7
25143.6
25081.5
21910.8
23977.7
26082.9
25657.3
22096.4
22827.3
24116.2
19089
21625.2
21126.4
22500.2
23704.8
24445.7
22771.9
23090.6
23384.8
20128.9
19262.6
20383.1
19925.8
21008.1
22320.8
24164
24471.9
21019.2
22940.2
22809.5
20449.3
23501.6
22428.8
18935.8
22496.6
21247.3
21975.7
23545.4
22809.2
23398.1
22892
19364.6
23337.6
22274
22222.8
22330.5
23109.4
22970.1
22021.6
20844.4
20234.9
23218.1
23323.7
22885.3
23422
23947.3
23196.7
23882.1
19308.8
21765.8
18913.4
19480.8
18850
19947.6
19581.2
19199.4
20052
19067.8
19064.2
18441
18117.5
18753.4
18450.5
20908.8
20352.9
19988.2
21147.5
20529.3
19624.9
20700.8
21910.3
20634.7
20146.7
21900.4
21550.7
21592.6
20874.1
21010.9
20999.4
21706.1
23257.3
21920.3
21921.7
21266.1
24426.1
23371.4
23843.5
23247.4
22021.9
21056.8
20205.1
21613.1
25007.7
24622.7
22237.8
21035.1
19806.3
20637
18963.3
18480.1
20791
20057.8
18415
20474.6
20276.1
19235.5
20198.8
19576
19882.5
19247.4
19604.2
20517.4
20378.6
19676.6
20686.9
18506.6
20665.8
22422.6
21447
21002.4
20158.3
19831.7
22004.2
20908.6
19613.7
21849.7
22058
21747
20108.8
21398.1
21596.4
21371.2
22447.8
20421.6
22634.5
20186.3
22266.4
22255.3
21719.6
21046.7
21915.5
21780.2
20576.2
22271.7
20367.7
18968.9
19572.2
18892
22508.6
22365.1
22256.2
22079.6
22212.8
21509.1
20613.2
19212
22161
22719.5
22327.5
25060.2
25192.3
25029.8
23229.8
25716
25078.3
24552.3
23813.3
20067.8
23710.1
21241.1
21576.7
23531.7
24849.8
24491.7
25116.7
25463.3
24507.2
20436.1
19057.6
18748.3
19434.7
20577.7
20550.3
19102.3
23032.7
20461.5
21946.9
20945.8
19788.2
23583.2
23192.9
20592.1
21446.7
22440.5
21124.4
20550.1
20674.7
20396.9
22579.1
23103.9
21433.1
21741.3
22547.5
21189
22935
21656.7
22170.2
21941.6
22579
22186.2
20948.2
20166.6
20419.3
21167.9
21063.9
21042.7
21286.4
19904.1
21083.2
21649.5
21364.8
20967.7
20311.8
20178.1
20734.6
20895.8
19644.1
21539.9
19070.6
22602.4
19619.9
20577.3
18759.1
21231
19565.6
20502.6
20301.5
20625.3
22253.4
20340.4
21281.9
24093.9
21883.4
19633.2
22418.5
16881
24030.7
24713.9
20312.5
22687.8
22284.8
23838.5
23173.1
19538
19955.6
22044.9
20325.1
22605.4
21471.1
22264.3
23698.7
24220.4
20610
21080.5
22631.2
21726.3
22264.8
23176.1
17627.2
23167.1
21141.7
21095.2
19587
17570.7
20012
20734.6
23980.1
23177
20423.1
21826.8
22336.7
22368.4
20789.4
21830.2
22000.3
22268.9
22170.7
21129.5
21602.2
21050.4
22135.2
21370.2
22271
20093.2
18740.1
22888
23156.7
23258.4
23626.7
24153
22741.2
24614.1
21647.2
21451.2
22567.5
21645.8
22323.6
21395.3
23420.7
22448.9
24746.9
24730.9
22197.3
20209.3
17926.8
19390.6
21791.4
22778.2
19896.2
19326
22545.9
23086.8
22208.5
20318.1
20644.4
20120.9
21191
19586.1
18335.4
20024.1
22143.8
19487.9
18390.8
22774.9
20287.6
18315.8
19444.9
19503.5
20371
18052.2
17809.7
22146.4
20388.6
18367
19833.4
21794.2
19191.7
22585.2
24640.3
18985.7
21012.8
20622.8
24373.5
22489.6
20527.8
19873.5
21209.3
21926.8
23322.3
23399.5
21295.6
20804.8
22498.2
21073
21582.1
22044.9
25113.8
23330.1
19265.1
24918.8
20593.7
22103.4
21612
21424.3
21896.3
23111.2
20920.3
23536.3
23697.1
22684.4
22880.3
22033.7
23074.2
22908.7
23906
22795.3
20603.8
22990.9
20332.1
22158.7
18589.4
19905.1
19878.1
21099.1
20385
19687.6
21221.5
21726
21099.6
21848
22001.4
22230.5
21322.3
21670.5
19359.3
20460.7
18139.2
22159.2
21559.7
21206.8
21574.9
23355.9
23055.6
19700.3
20695.3
23150
22557.5
22828.4
23223.2
21587.4
21202.8
22623.5
21289.8
23044.2
21729.7
22449.1
22204.4
18735.8
20586.2
23132.2
23097.5
22084.7
20187.1
23123.9
21716
20889.6
23338.3
23075.4
21189.1
20288.2
22698
22556.4
23183.9
21270
22793.9
21945.9
22327.1
22753.7
22429.7
22561.8
19941.1
22092.2
21329.7
20954.5
20937.1
19402.3
19018.2
17776
21826.2
18315.1
22944.7
18726.3
17665.6
19031.6
18408.2
23147.6
19525.6
21937.7
20238.4
20596.8
22004.4
21717.7
20433
23547.3
23950.6
20885.6
23435.1
20346.8
19681.5
23524.4
20470.7
20660.3
19484.9
20264.5
20020.4
19995.9
20570.4
20957.7
21512.3
20471.1
21693.1
17726.4
19787.8
20628.2
18702.6
18958.7
18128.7
19295
22604.9
17507.4
18537.8
21049.3
23661.4
21718.1
20787
20720.4
20518
21564.9
20972.3
22887.5
21444.1
22640.9
24788.3
19452
23299.3
19568.7
23500.4
21022.2
20962.9
19994.4
20078.5
19509.6
20680.1
19259.3
21409
20187
20699.8
18729.9
20731.7
19182.8
18748.8
18444.5
22257.4
22941.3
22510.6
22153.2
21765.8
21310.1
20855.7
21782.9
20804.1
22047.9
23011.1
23235.3
22901.9
22364
22524.1
22457.2
22974.6
22842.1
23910.8
22284.6
22908.9
24217.1
23604.8
22261.3
21813.7
23679.3
21807
21936.9
24833.6
22705.9
21512.1
22547.3
22831.2
21199.7
23539.1
22340.3
24592.6
24682.1
24353
20596.1
18320.3
24098.4
22162.2
22772
20910.3
23070.4
21762.2
23406.5
24759.8
23126.6
23502.6
22834.4
21970.8
20812.6
24122.8
23824.7
24088.3
23760.6
21501.8
18943.8
25343.3
23419.7
20376.2
24811.1
20731.1
23777.1
22167.7
19502
20341.7
20602.6
21610.3
20758.5
20896.2
22777.5
21531.2
20972.4
20918.6
21538
21302.8
21464.7
20653
20789.6
22164.3
20336.1
22828.2
20354.4
20549.2
21819.2
19236.2
20253.6
18365.2
21780.9
22418
20953.7
22752.4
21253.7
21343.3
19358.6
21344.6
19743.2
19574.9
18427.2
19258.1
19724
19022.2
18303.4
19934.2
19970.1
21701.3
21370
22496.7
18260.4
22523.9
17230.4
18639.8
18067.8
19237.2
23183
20668.9
17032.8
21723.1
20188.4
19827.4
17815.7
20883.1
17262.1
21023.7
20712.9
20923
22169.1
22631
21333.2
20745
19242.2
21623.3
22763.4
19069.3
19646.8
23378
20466.6
19547.6
17864.5
18490.7
21061.2
19164.5
18361.4
17905.6
21350.1
19820.9
21580.3
20696.2
23004.5
18124.5
19118.5
20817.1
22465.5
22294.7
23729.7
21963
21420.4
22317.4
20846.2
21554.8
23687.5
22361.7
23692.7
21532.3
23916.6
23218.8
20565.1
23714.6
23757.8
23345.9
21948.4
20154.1
22529.2
19935.2
22833.1
21016
19943.1
21068.7
20446.9
24058.3
22630
18666.8
23038.9
20798.1
20678.5
21469.8
21526.4
22161.1
21649.9
23438.2
22663.7
21783.2
22436.7
21240.7
21507.3
21204.2
22435.8
21659.4
21877.7
21404.6
20180.4
21667.7
21886.2
18826.1
23254.2
23628.5
25022
24753.9
24971.8
21982.2
23206.7
21566.9
24318.3
25846.5
23498.5
24153.7
24537.4
25978.5
26147.8
22275.2
25957.7
24947.5
23745.7
23799
21344.7
22810.3
25224.6
25284.6
23768
22624.3
24540.7
23725.4
22331.7
21896.5
23622.9
24045
24791.4
24022.2
23790.8
21504.9
22517.5
23048
22367.3
23218.6
23170.5
21853.7
21953.5
21845.2
22623.8
20666.6
21454.9
22713.9
20949.5
22373.2
23178.1
22826.4
23484.7
22543.6
22175.8
21451.2
22596.6
24180.2
22948.6
25333
24890.1
21913.6
22899.7
22176.1
20444.9
23008.6
24685.4
25217.9
24020.8
23827.1
23967
22509.7
22138.2
22369.9
21890.2
21308.8
21206.7
21933.6
20712.6
20784
21002.2
20804.6
19940.3
19814.7
20399.7
20797.8
21220.6
21889.5
23444.8
24841.5
19743.2
21864.1
21149.7
23872.8
19443.1
20692
19974.5
20706.7
19840.4
22095.5
20716.9
19052.2
21335
20238.3
19059.3
19750.7
20125
20489
21674.4
22111.7
20028.5
19790.8
20837.1
19847.1
24203
19181.5
20217.1
22112.9
19231.8
20235
23435.6
20050.3
19338.2
20410.4
19245
19131.7
22058.6
20449.9
19359.1
20606.9
20861.6
21530.9
21851
19981.7
20214.1
20797.9
20974.1
22547.8
21746.5
21317.2
22235.1
23500.5
21864.6
22542.6
21951.3
23427.5
22574.6
23781.7
22354.4
23373.3
23156.1
23639.2
22277.1
22228.9
22335.2
22537.5
22589.3
22942.7
23316.2
22375.8
21622.8
22417.5
20772.7
21109.6
21185.7
20812.5
21378.3
21566.4
21444.6
21327.5
21708.3
21578.1
21423.3
20707.5
22439.9
22003.8
22117.2
21637.3
20495.8
21694.4
20287.8
22192.3
19888.5
23122.7
20596.5
20797.4
19538.3
21427.6
21658.9
22368.7
19063.6
20780.7
21252.2
21168.8
19936.6
21801.8
22201.3
20264.7
23070.9
20650.8
21517.9
23406.9
20987.4
22662
22495.7
20678
22624.8
22612.8
18876.7
23078.5
21939
24091.8
22681.5
22323.8
22339.8
23325.9
22216.2
24077.9
23967.7
21752.4
22016.3
21793.6
22666.5
21584.4
21989.1
22944.4
22391.1
23858.5
23141.5
23866.3
23795
23313.6
25382.3
25740.5
24076.8
25106.6
23716.3
21452.8
24626.2
24903.5
25029.2
25121.5
23173.4
23642.5
24385.3
20224.1
23154.7
23110.3
21834.1
22929
21415.7
22582.3
21654.6
22604
21377.4
22519.4
21720.7
19347.6
19564.1
19955.3
20952.9
20389.9
22546.5
22442.8
20714.6
20219.3
22254.3
21290.5
21727.7
22889.2
21259.2
23097.7
19519
18343.2
21603.7
19230.1
23315.5
21856.4
22212.6
22025.4
21432.4
20329.3
19508.4
22984.2
22263.8
19966.9
20918
21317.1
18352.2
21680.4
21444.7
21666.7
22493.8
17723.9
22712.7
23049.4
22012.6
20775.1
23308.6
21483.1
23429.7
23737
22388
21552.8
18618.3
20058.3
22644.1
23454.2
22625.3
21019.2
21729.6
21923.3
22499.7
22259.9
21246.1
22712.1
21736.8
23487.1
22320.1
21587.4
21758.1
23763.2
22147.9
22780.7
20393.1
21426.7
22140.6
20961
22408.3
22424.3
23350.5
22684.5
22051.2
21096.5
20994.2
21631.2
21255.8
21380.3
22270
24209.4
23360.3
23587.8
21045.9
19817
22152.8
22916.2
23339.9
22469.7
21398.8
24246.8
24106.3
22708.6
24469.3
23920.9
22293.8
22309.1
23157.4
21333
18020.1
22418.8
18548.7
20071.1
18336.7
22408.8
20961.8
21840
19747.1
18256.2
20683.8
19272.5
21078.7
22553.5
22899.3
20821.3
21355.3
22171.6
21344.2
21592.1
22417.2
21720.6
21181
22302.8
19343.7
23260.9
24033
20561.1
20491.5
19980.6
21188.6
21271.2
23053.9
23161.8
24400
19462.5
21915.6
19257.7
18775.6
20282.6
17971.9
19670.6
18629.6
21770.8
18354.9
21279
23323.8
20672.5
17782.7
20298.9
19366.4
19992.4
19542
20106.5
21040.9
19714.3
19117.4
18988.2
20522.8
19656.8
20026
19869.8
19410.3
19485.2
18813.5
19888.8
19918.5
27403.5
21560.1
26717
21111.4
21352.8
24883.4
19750.9
27254.1
23727.7
25290.9
22798
23256
22817.9
20760.8
21883.6
22806.8
25865.2
27041.9
20364.4
26188
25830.6
23138
24312.1
26110
24127.5
20830.3
20834.4
19735.8
23502.9
22754.4
22974.6
18478.3
15958.8
20708
23300.9
22601.3
22234.6
20771.5
21424.8
18429
22483.5
17965.4
20327.5
17129.5
22916.6
21752.1
22534.7
19827.9
27762
49978.7
42348.5
53888.2
50482.4
47775.4
43641.4
52529.9
51625.7
41702.5
38188.7
36066.8
31373.9
35961.6
22554.7
21232.5
22932.3
22502.3
23712.7
24088.8
23791.3
24935.2
24131.2
21309.8
25260.5
24736
23250
22626.3
23742.9
22942.1
21441.2
21103.1
21157.2
20632.6
23866.8
21289.7
20861.4
22524.4
22803.6
21728
24773.4
25771.7
24496.6
23835.6
25548.3
23224.7
22761.6
24220.2
23136.2
25040.9
23550.3
21638.7
21941
26130.1
25290
24382.7
22994
23384.4
25663.4
23422
19245.8
21026.9
23727.6
23405.6
23714.2
21243
22174.7
19123.2
21463
23121.8
23622
23313.5
20935.2
18801.6
18780.4
23932.3
23117.4
19871.8
24198.7
21041.6
20219.2
22602.2
18253.5
20544.1
23340.3
20206.7
21327.8
23949.6
20054.2
21271.8
22798
20425.7
20450.8
22525.4
20073.3
20776.7
20442.2
19727.2
20719.9
22904.2
21125.4
22290.9
20937.6
20146.4
21820.8
20664.8
20970.9
21349.9
22055.1
20828.6
20359.9
21280
20694.9
21859.7
21298.1
21205
21062.8
20271.2
22061.3
20134.4
22349.1
22235.8
22600.7
19972.4
21975.2
21404.5
22663.3
22849.1
20373.5
23023
22563.5
19448.8
19078.3
20172.3
21252.4
22164.4
19278.1
21790
20945.8
20339.5
20828.4
21346.4
20113.2
20403.2
19895.1
20495.2
23031.5
19922.6
20856.8
22318.6
19465.6
20269
21423.4
20351.7
23035
21027.7
21202.3
22511.8
22920.7
22262.7
20025.2
20770.1
22257.8
22397.4
22213.7
20184.8
20616.2
20491.6
21674
20939.4
19780.2
20156.9
19725.2
20664
22236.7
22476.8
20657.9
21046.3
20288.4
21037.6
21431.2
21808.2
21481.4
21677.3
20773.9
20856.7
21053.3
22379.3
21214.1
21856.9
21572.1
20612.4
21532.7
21282.3
21166.5
22040.8
21910.4
18846.1
23118.9
21798.6
20434.3
23018
20471.9
22038
22413.5
22133.5
22204.7
22880
20655.3
23011
24532.1
21103.8
23259.6
21945.1
23180.1
23052
21907.3
20473.8
20054.5
23521.9
22543.6
22962.1
22114.1
19742
22372.6
21899.4
23434.8
20918.1
23232
21773.6
19787.2
22285.2
23326.4
23004.1
23561.9
22636.1
20856.4
20487.1
21024.5
21417.6
21898.4
20508.2
20732.5
22524
21165.9
21915.8
23812.1
22954.8
23606.7
21865.8
19248.6
19822.2
20187.8
18609.5
25585.1
22037.8
22521.8
21940
22361.8
25658.9
23586.8
21076.1
21235.7
24239.8
26021.5
23286.4
23559.3
22372.3
21343.6
24756.9
20917.4
24713.6
19539.5
18660.7
18405.2
18911.8
19221.5
19813.1
22957.6
23450.2
21452.6
24342.6
20277.6
22267.7
20418.6
24282.6
22078
23887.5
19451.5
23708.8
23356.4
22623.2
23751.7
23511.8
22613.6
21052.6
21330.2
21407.2
21421.9
20388.8
21213.2
20785
19810.1
20602.1
19434.3
19183.5
21731.6
20268.8
19391.6
20406.1
20438.9
20358.6
22054
20987.8
21874.5
20888.7
21358.1
22450.6
20808.5
19929.9
21459.9
22067.5
21796.5
20895.8
20510.5
20662.9
21594
20375.2
21439.2
21249.2
21753.7
21994.8
19796.3
22679.8
20957.8
21958.9
21496.3
20800.2
20541
21255
21499.1
21821.9
21771.7
20480.1
20443.2
21070.9
20427
21605.5
21847.4
21386.6
21391.7
20578.6
21791.4
21456
21703
20346.1
22179.1
22064.3
20639.6
22064.8
21807.1
21863.6
20756.8
21343.1
20781.1
20628.3
20081.7
21076.6
20601.4
21264.1
19272.9
19750.2
22079.1
20450.7
22874.5
22480.9
23019.9
21590.8
19895.7
22343.5
20899.3
21701.8
23123.4
19311.7
22983.9
20400.8
21087.6
20311.5
20559
20049.3
20534.2
20293.1
19723.4
20810.8
20732.7
20815.9
20864.4
21604.2
22723.4
21935.1
21745.1
20773.9
21676.5
21947
22874.3
22065
21772.8
20157.1
20961.7
22538.3
19832.1
21991.9
21306.4
21145
21425.5
21289.2
21932.2
22144.2
21913.7
19828
21693.9
22188.5
21307
22274
20577.8
21592.2
21172.3
20871.9
21371.2
20582.7
21729.7
22051.9
21606.8
20303.9
20760.9
20722.9
20202.7
19228.1
21891.2
19969.6
18948
21658.5
20708.2
20328.8
19513.1
21032.9
20639.1
22755.3
24438.9
21209.2
20568.2
21552.4
21512.3
22202.1
21469.6
21462.4
23667.1
20135.1
23052.1
23072.6
21741.6
21665.4
23344.3
21559.2
22327.1
23282.6
23891.1
20570.4
21779.4
21692.5
21159.2
21801.4
22861.3
21691.6
21596.3
21412.7
23585.2
21704.8
21291.6
21505.2
22119.7
21498.9
23086.3
22340.3
22668.4
22433.5
19910.1
19574.5
21533.3
21860.3
20813.7
20111.5
20088.2
21062.3
21085.4
20990
20481.7
19322.1
19231.5
19547
24020.7
20507.3
19373.9
21774.4
22887
20877.2
21713.4
20346.1
20409.2
19235.5
18764.5
21062.5
23366.8
23210.3
21729.1
20633.2
19395.8
21779.8
22693.5
19101.8
19670
20590.9
19104.9
21228.2
22063.2
22341.3
19682.9
19454.8
20180.8
18463.1
22514.7
22063.4
20900.9
23669.6
22864.6
23397.1
22259.5
21779.6
22907.8
21978.1
23018.7
21803.4
23361
23091.3
22883.6
24152
21625.3
20494.5
23188.8
21169
22125.7
20684
20828.6
24276.8
22160.8
21598.1
22147.3
22853
23543.6
22641.7
19551.4
19536.7
21255.7
21691.7
20700.8
17990.7
22764
21483.9
21853.7
20266.2
23011.5
23271.7
21149.7
20623.4
20948.3
21121.1
23115.8
22131.1
20931.2
21127.3
20980
20441.9
23117
21638.3
21065.7
20649.6
20058.3
24060.6
22097.2
22080
22876.9
22507.1
20549.2
19308.8
20141.8
21335.3
20901.8
19855.6
20994.6
20403.4
24101.4
22798.1
21305
22285.4
22456.7
21258.9
23642.6
21247.3
22456.4
22130.5
20931
20936.2
21443.3
22723.8
21755.5
23803.3
23484.9
19903.7
20013.9
19991.9
20032.6
18615.4
20050.4
21703.6
23462.9
21962.3
18077.6
20831.7
22905.8
23310.4
21868.2
22318.2
21778.4
18298.9
20623.6
21602.6
22410.7
23627.5
22416
21465.1
23285.6
20920.1
20473.8
21521.6
20722.7
21726.9
19830.3
21042.2
21786.1
19768
20075.2
22645.2
20681.7
20755.7
20174
20233.2
18960.6
21565.3
20627.6
20794.7
21336.8
22783.6
20642.1
21359.3
20614
20500.3
20855.3
17811.5
21025.6
18797.5
21809.6
19059.3
23658.9
18740.8
18972.5
20257.5
20587.2
21382.8
20021
19463.8
20781.7
21447.6
23171.3
22758.6
18638.6
19521.9
20736.6
21294.9
22953.2
23847.8
21772.7
22067.3
23299.2
23190.7
23072.8
22015.5
22823.1
23154.3
23776.4
23823.6
21293.8
22392.6
23907.9
21306.1
22775.5
21916.6
22749.8
23004.7
23057.8
21737.5
21232.9
22345.4
22273.9
22233.9
21274
22283.1
21275.9
22308.2
21200
20904.1
21081.9
19403.8
19770.9
19486.2
22356.3
18980.2
22351.9
21856
19059
19800
20169.5
18261.1
21355.3
20934.2
19431.8
20804
19736.2
20567.7
21421.8
21300.7
20997.9
21416.2
18959.1
21361.2
19435.4
21091.6
19825.6
19692.6
20691.5
18927
20211.4
20853
20727.8
21258.7
21497.7
20120.3
20900.5
20179
18850.5
19669.9
19383.2
20253.4
19645.1
19550.1
20222.8
19511.3
20404.5
20761.1
19582.6
20047.3
21174.2
20962.1
23687.9
22885
21920.3
21982
22274.4
21289.5
17762.2
18209.8
20044.2
21838.3
21484.4
22201.6
19470.3
20067.9
19421.9
18529.9
20997.6
19851.6
20695.5
22342.2
22691.3
21777.6
23819.1
21791.4
22469.6
22996
21921
22869.7
23237.7
24020.8
20471.1
19127.2
21912.1
19745.7
21297
21377.9
21317.1
20423.6
19903.5
20499.3
20554.3
23015.9
22599.4
20877.4
22634.5
22223.3
21164
22004.4
21106.6
23001.7
21757.6
22054.9
23249.6
23294
23126.4
23742.1
22047.7
21034.6
20260.9
22234.9
20266.1
19591.2
18658.9
19454.8
20321.2
21145.4
22832.6
24237.1
22898.7
22285.2
24838.5
24175.3
24480.3
23997
24851.5
24209
23493.5
22526.2
22666.2
24046.9
24301.3
24891
24265.2
22806.5
22664.3
22158.7
19603.1
22216.3
20651.7
21068.9
23221.9
22431
20028.1
20877.2
23722.3
20966.8
19485.8
20962.9
21219.6
21526.1
21270
19567.8
21175.1
21984.1
19423.3
22223.3
20627.9
20859.7
20191.2
19934.5
21097.1
18812.4
22347.3
22024.6
21992.2
18217.6
19682
22736.2
20437.4
21549.6
21764.6
20803.2
19542.5
20810.6
19446.8
20584.2
21467.5
19507.9