# vtk DataFile Version 3.0
Happy Go Lucky
ASCII
DATASET POLYDATA
POINTS 14290 float
-0.605372 0.146204 -0.696348
-0.636177 0.150183 -0.708581
-0.608617 0.163029 -0.719533
-0.632095 0.177926 -0.725874
-0.650741 0.180952 -0.701797
-0.609706 0.181633 -0.733497
-0.589601 0.175268 -0.697961
-0.593302 0.179666 -0.72391
-0.593119 0.195816 -0.740113
-0.580948 0.198268 -0.717317
-0.660881 0.298613 -0.696826
-0.642029 0.302776 -0.728781
-0.632809 0.254725 -0.735119
-0.615608 0.262413 -0.754188
-0.643907 0.274559 -0.718481
-0.59739 0.269252 -0.764768
-0.59667 0.220251 -0.75307
-0.646414 0.225157 -0.708613
-0.636462 0.228239 -0.728324
-0.619374 0.235473 -0.748728
-0.642911 0.204146 -0.717865
-0.621482 0.204445 -0.740322
-0.597534 0.24707 -0.760646
-0.644729 0.247093 -0.712789
-0.6292 0.281582 -0.742944
-0.609714 0.287683 -0.762165
-0.575366 0.217103 -0.737194
-0.575236 0.225247 -0.711555
-0.573929 0.237971 -0.755549
-0.57027 0.243396 -0.730889
-0.572791 0.252859 -0.706966
-0.567729 0.258899 -0.746781
-0.577296 0.262438 -0.765672
-0.569067 0.270229 -0.727483
-0.573396 0.281281 -0.702731
-0.566637 0.282189 -0.751116
-0.584106 0.28791 -0.771595
-0.571287 0.302348 -0.726969
-0.703505 0.386269 -0.700275
-0.644316 0.380267 -0.749811
-0.596935 0.381278 -0.758631
-0.680085 0.383173 -0.718787
-0.638335 0.325742 -0.740767
-0.654515 0.328136 -0.720248
-0.674079 0.334696 -0.697015
-0.623331 0.337071 -0.758574
-0.645294 0.351646 -0.741057
-0.598372 0.35247 -0.76901
-0.666735 0.355001 -0.717777
-0.688676 0.361214 -0.698717
-0.623341 0.36557 -0.759878
-0.598685 0.317735 -0.771279
-0.595993 0.369253 -0.703633
-0.603767 0.389631 -0.713833
-0.622124 0.39093 -0.757714
-0.663698 0.395973 -0.742079
-0.624728 0.308681 -0.752348
-0.660273 0.372347 -0.733455
-0.567994 0.311177 -0.758732
-0.577618 0.359887 -0.748084
-0.576036 0.328516 -0.714032
-0.572559 0.332723 -0.738319
-0.574372 0.337869 -0.764384
-0.590188 0.377257 -0.729241
-0.581348 0.352697 -0.719925
-0.57649 0.310342 -0.696269
-0.707279 0.409357 -0.724316
-0.597772 0.404658 -0.741746
-0.635343 0.41317 -0.754385
-0.675971 0.417465 -0.723081
-0.615485 0.418118 -0.711157
-0.652134 0.423057 -0.729344
-0.655055 0.423925 -0.701889
-0.681943 0.428038 -0.696045
-0.682834 0.0654972 -0.59726
-0.656646 0.0686118 -0.619783
-0.63122 0.0786381 -0.605289
-0.635669 0.0850814 -0.632158
-0.680383 0.0873563 -0.62022
-0.662207 0.0880884 -0.64177
-0.688224 0.092952 -0.599112
-0.640811 0.0978082 -0.655801
-0.620524 0.0999347 -0.615622
-0.677777 0.19532 -0.625187
-0.662354 0.188651 -0.670007
-0.645553 0.11512 -0.675704
-0.672016 0.18029 -0.641864
-0.683784 0.173445 -0.600773
-0.667492 0.158299 -0.658563
-0.674761 0.156107 -0.633685
-0.680683 0.155094 -0.610783
-0.625515 0.126314 -0.689615
-0.606542 0.133654 -0.671248
-0.648865 0.133933 -0.690031
-0.678456 0.133497 -0.622766
-0.663522 0.133784 -0.671626
-0.620588 0.105158 -0.640551
-0.67249 0.133732 -0.647271
-0.683761 0.134295 -0.598814
-0.6009 0.140138 -0.606186
-0.60054 0.144978 -0.65332
-0.609114 0.126376 -0.647597
-0.600501 0.143918 -0.631858
-0.658588 0.157235 -0.685597
-0.595323 0.157949 -0.671359
-0.677137 0.110316 -0.634994
-0.664449 0.110517 -0.658174
-0.682844 0.111737 -0.610478
-0.620731 0.112084 -0.666069
-0.678509 0.175733 -0.619725
-0.61008 0.121698 -0.623265
-0.610934 0.116658 -0.598848
-0.684343 0.193795 -0.605042
-0.593186 0.16434 -0.645502
-0.587217 0.184789 -0.636884
-0.591558 0.167556 -0.616647
-0.586024 0.187576 -0.664113
-0.585553 0.197287 -0.61718
-0.732809 0.300431 -0.595744
-0.714356 0.295982 -0.613566
-0.696797 0.288048 -0.633087
-0.700874 0.272596 -0.61384
-0.695693 0.235826 -0.597167
-0.672563 0.207689 -0.643062
-0.67743 0.236665 -0.63855
-0.664065 0.226551 -0.666771
-0.654657 0.263585 -0.694758
-0.683743 0.218901 -0.615886
-0.686159 0.263378 -0.634926
-0.66185 0.251159 -0.676654
-0.690776 0.247763 -0.615448
-0.676245 0.294321 -0.670004
-0.606262 0.297527 -0.598413
-0.596954 0.297501 -0.623453
-0.691601 0.303551 -0.652792
-0.681059 0.279568 -0.653245
-0.667367 0.273529 -0.674476
-0.653688 0.237148 -0.69172
-0.672264 0.255227 -0.657047
-0.653388 0.210219 -0.692711
-0.575632 0.26217 -0.682156
-0.580763 0.206391 -0.690444
-0.584936 0.255768 -0.613031
-0.581763 0.250477 -0.638714
-0.579325 0.244291 -0.662906
-0.576698 0.23482 -0.686646
-0.586332 0.294975 -0.649375
-0.581169 0.218444 -0.665408
-0.581552 0.229705 -0.646027
-0.583044 0.227183 -0.62062
-0.577671 0.289441 -0.675915
-0.579754 0.269682 -0.656886
-0.585691 0.275118 -0.631464
-0.583255 0.207532 -0.641685
-0.593517 0.278873 -0.606913
-0.760194 0.354965 -0.638587
-0.740634 0.357866 -0.653413
-0.71952 0.351573 -0.662513
-0.782918 0.356558 -0.616737
-0.7113 0.367401 -0.682555
-0.696376 0.344163 -0.677722
-0.731801 0.3378 -0.638625
-0.757422 0.335403 -0.618101
-0.733737 0.373181 -0.669601
-0.779163 0.333408 -0.598334
-0.704934 0.328742 -0.655738
-0.757378 0.377045 -0.655849
-0.768126 0.380629 -0.595592
-0.77368 0.38342 -0.629968
-0.723683 0.393962 -0.684494
-0.732888 0.317806 -0.615111
-0.717059 0.394106 -0.608079
-0.711383 0.312839 -0.634009
-0.754637 0.316703 -0.597415
-0.600618 0.319209 -0.640679
-0.648639 0.356041 -0.609444
-0.607333 0.364776 -0.67933
-0.623226 0.365446 -0.655108
-0.643433 0.368856 -0.634388
-0.665941 0.374388 -0.618803
-0.624452 0.380647 -0.673476
-0.690858 0.383179 -0.609875
-0.660312 0.384427 -0.63865
-0.6338 0.334528 -0.599116
-0.603048 0.34273 -0.659939
-0.621891 0.344914 -0.629524
-0.613887 0.385877 -0.693297
-0.644937 0.387344 -0.658576
-0.680248 0.39201 -0.63129
-0.612992 0.318106 -0.612792
-0.682896 0.317813 -0.674721
-0.58724 0.316726 -0.668819
-0.587398 0.341801 -0.690869
-0.753022 0.404526 -0.606225
-0.765132 0.40472 -0.642023
-0.697461 0.406433 -0.610234
-0.754179 0.40728 -0.67365
-0.696745 0.413468 -0.645854
-0.725957 0.414425 -0.635224
-0.707501 0.416275 -0.692342
-0.717121 0.422095 -0.668174
-0.622501 0.404951 -0.674963
-0.657339 0.409983 -0.639083
-0.66169 0.415287 -0.675926
-0.689342 0.424449 -0.670894
-0.208535 -1.29638 -0.529307
-0.176464 -1.29731 -0.496586
-0.128561 -1.29813 -0.512269
-0.0333837 -1.30516 -0.513313
-0.0798228 -1.29651 -0.526064
-0.0784745 -1.30439 -0.499586
-0.398241 -1.29615 -0.500895
-0.30143 -1.29561 -0.536195
-0.338473 -1.29584 -0.500204
-0.232024 -1.29564 -0.497763
-0.267312 -1.29635 -0.500944
-0.245972 -1.29587 -0.548802
-0.12106 -1.2955 -0.550127
-0.172513 -1.2959 -0.541635
-0.0290079 -1.29611 -0.544895
0.0503685 -1.29489 -0.512562
0.0936459 -1.2944 -0.502241
0.0220485 -1.29609 -0.524067
0.140256 -1.29596 -0.503184
-0.0319025 -1.09915 -0.496868
0.0167505 -1.14192 -0.50058
0.0583341 -1.09866 -0.498282
0.0068458 -1.10738 -0.505144
-0.696665 0.0611462 -0.567583
-0.711108 0.0580143 -0.513497
-0.705101 0.0597783 -0.539852
-0.712213 0.0325272 -0.502762
-0.703679 0.0345756 -0.527681
-0.704647 0.084112 -0.522259
-0.699708 0.0868392 -0.549866
-0.678359 0.0247995 -0.528259
-0.66961 0.0452674 -0.572084
-0.639816 0.0530269 -0.560591
-0.659317 0.0359737 -0.544955
-0.634002 0.0473811 -0.502156
-0.688989 0.0372964 -0.550699
-0.64747 0.0577828 -0.591268
-0.653259 0.0316347 -0.517629
-0.62091 0.0696863 -0.513336
-0.623804 0.0742854 -0.542005
-0.625416 0.0804659 -0.574114
-0.605687 0.0879663 -0.495881
-0.693865 0.088555 -0.577465
-0.609902 0.0936614 -0.522566
-0.620054 0.0967229 -0.59367
-0.612293 0.100252 -0.549688
-0.694193 0.0194819 -0.512796
-0.672521 0.0189355 -0.504049
-0.636572 0.0503489 -0.530661
-0.704191 0.105366 -0.50321
-0.699207 0.11473 -0.530531
-0.699721 0.182983 -0.550292
-0.703256 0.129427 -0.506882
-0.701006 0.146125 -0.523649
-0.715899 0.200295 -0.51278
-0.698761 0.161101 -0.541477
-0.706843 0.176702 -0.521437
-0.690985 0.184771 -0.579568
-0.612165 0.108854 -0.575142
-0.688203 0.112553 -0.586751
-0.597582 0.112078 -0.504145
-0.693361 0.112721 -0.561028
-0.599365 0.118332 -0.529795
-0.6008 0.125668 -0.555319
-0.688843 0.135962 -0.574286
-0.694608 0.138539 -0.54876
-0.601406 0.133394 -0.580501
-0.692456 0.160259 -0.56355
-0.686173 0.157391 -0.587976
-0.587455 0.177474 -0.568308
-0.586094 0.171089 -0.542863
-0.583645 0.190714 -0.524668
-0.582813 0.185741 -0.498385
-0.592685 0.158928 -0.587459
-0.590828 0.144148 -0.53606
-0.590195 0.13732 -0.51055
-0.592587 0.151518 -0.561496
-0.585334 0.198835 -0.575507
-0.585324 0.164181 -0.516932
-0.584371 0.19977 -0.551228
-0.587121 0.185164 -0.593113
-0.799397 0.298668 -0.510484
-0.720684 0.268265 -0.575036
-0.704862 0.257806 -0.594456
-0.731949 0.286714 -0.58054
-0.728608 0.257741 -0.551333
-0.768893 0.293672 -0.559368
-0.762124 0.252494 -0.509659
-0.736619 0.24634 -0.525605
-0.707454 0.239816 -0.57245
-0.741886 0.232732 -0.501705
-0.716183 0.230802 -0.543271
-0.722976 0.221748 -0.51831
-0.789983 0.290285 -0.53817
-0.716822 0.280845 -0.594876
-0.750754 0.298985 -0.578702
-0.74261 0.280459 -0.562778
-0.786245 0.271282 -0.515234
-0.759213 0.270666 -0.53728
-0.727443 0.210896 -0.496154
-0.702042 0.209742 -0.561212
-0.709647 0.204098 -0.534377
-0.613012 0.294026 -0.573913
-0.635573 0.302155 -0.534915
-0.602387 0.271017 -0.562838
-0.602873 0.25296 -0.516339
-0.596448 0.250376 -0.541677
-0.618471 0.273046 -0.510218
-0.59539 0.233191 -0.499098
-0.609838 0.270926 -0.534419
-0.693383 0.214047 -0.588463
-0.601128 0.281172 -0.586245
-0.62348 0.2859 -0.527644
-0.618622 0.289267 -0.54899
-0.635938 0.292566 -0.510143
-0.585267 0.23736 -0.592431
-0.589258 0.245598 -0.5669
-0.591708 0.262267 -0.588046
-0.591272 0.231616 -0.523772
-0.586921 0.227183 -0.547232
-0.584929 0.22023 -0.571191
-0.585304 0.212324 -0.530931
-0.586231 0.210997 -0.509648
-0.584726 0.211156 -0.594905
-0.79529 0.317933 -0.529777
-0.710333 0.33458 -0.501373
-0.776316 0.33474 -0.523447
-0.793941 0.335638 -0.573435
-0.788636 0.337839 -0.546147
-0.698467 0.340512 -0.52671
-0.752283 0.345009 -0.519576
-0.72492 0.347222 -0.520879
-0.766253 0.351665 -0.540606
-0.779167 0.355926 -0.562189
-0.712307 0.35536 -0.545063
-0.739949 0.358676 -0.540445
-0.792513 0.312445 -0.556885
-0.786766 0.359213 -0.586701
-0.697674 0.361899 -0.568634
[...]
POINT_DATA 14290
SCALARS scalar float
LOOKUP_TABLE default
21278.4
20090.2
20870.8
20681.4
20198.8
22021.9
21777.7
21973.2
22250.4
22965
18436.8
19473.5
23654.1
25068.4
20858.6
25037.6
23509.7
23035
23719
24205
22147.8
22839.3
25252.4
23081.4
22541.6
23478.1
23133.7
24272.3
22745.4
25400.5
23934.3
24610
23027.1
24637
21716.6
22835
21253.4
22167.8
21310.3
21078.7
18779
21296.4
20497.5
18799.1
18631
21055.2
21455.8
19111.9
20296.9
20632
21272.6
19764.3
21642.3
21460.2
19381.1
19040.9
21506.9
21487.9
19300.9
19641.8
20441.3
21105.2
17690.5
21661.9
21463.5
19362.8
22310.1
21405.4
21933.6
30529.8
23809.1
27822.3
31469.3
32605.7
18941.4
19624.2
21762
23063.5
22159
22275.8
23073
23910.6
24915.3
23446.4
19700.3
23503.6
22844.5
25400.3
23214.6
25520.1
26333.9
21957.8
24119.2
21770.3
26630.3
23364
25642.7
25508.2
25944.4
23375
24750.8
26112
24562.4
21019.7
22777.7
24911
23904
25726.5
23962.8
25282.6
25593.1
23876.9
24057.5
23053.9
22252.7
22664.5
21457.8
22647.2
23584.8
23087.2
22679.7
23296.1
21695
21047.1
21502.6
20627.3
21638.7
22309.9
22682.3
22124.6
22378.3
20768.9
23255.7
21790.9
21377.4
22382.5
21660
22405.5
22159.9
20985.7
22142.1
22270.7
23469.1
23316.5
22961.8
22885.3
20576.4
22295.7
23031.2
23063.1
20185.7
22233.6
22841.2
22391.1
23738
20033.6
21243
21607.2
18482.3
21657.2
20456
21244.7
21822.9
21148.5
21917.6
20799.2
18686.3
21885.6
17426.2
20459.5
22160.5
20680.6
21471.7
23472.5
18685.2
20153.2
20328.6
19638.8
20387.5
21680.1
20886.6
21869.6
21758.9
20189.8
17986.6
18142.1
21404.5
21121.7
22049.3
20315
19576.1
18440.8
19268.3
22084.5
21235.1
24344.1
20282.3
32009.4
27603.2
32377.4
30062.8
23967.3
24700.9
32852.1
33135.6
11918.8
18742.7
17489.8
13514.9
14191.4
17326.9
4433.83
5059.2
7702.69
11137
9598.07
5251.97
5486.91
6576.34
5712.76
8142.4
9388.28
7121.98
8261.26
20733.8
13022.1
24147.9
20539.4
19194.5
22207.9
20929.8
21802.8
21586.4
20851.4
20558.6
22200.9
18327.1
18150.9
20102.5
21108.7
19953.7
18206.5
21925.3
19947
18959.6
20128.6
21645.6
21672.1
20326.2
23047.1
20125.7
22142.4
23243.6
19657.8
20717
20384.6
21312.4
20354.1
20739.4
21675.1
21565.6
20978.7
22956.2
21814.1
24274.2
22139.1
21800.8
21148.5
21314.2
23812.7
21788.5
22278.4
22940.2
25120.5
23009.8
22500.5
22814.4
20388.6
22335.9
21511.1
21706.7
21964.7
23712.8
21394.8
24121.5
22864.7
19293
21975.5
22563.6
23199.5
19244
22034.2
20256.1
19008.7
20261.9
21571.1
19417.2
21076.3
19794.2
23664.2
23494.4
21325.4
19775
19136.8
22497.9
20099.4
20755
24161.3
23081
24316.4
23283.5
24142.9
22722.5
22158.7
23948.4
21524.7
24298.5
23483.7
24170.5
22361.1
23402.3
23853.8
23951.9
23957.6
24408.9
24010.6
24091
22580.9
23261.9
21549
21265
23951.1
21345.4
23643.6
21420.9
23035.7
21679.8
25122.6
24898
21931.6
23326.7
21395.5
21655.9
21825.3
25012.1
24559
22902.4
23237.6
21824.4
21099.2
22112.5
21784.8
24022.5
21669.9
23414.6
21728.4
22458.9
22456.3
22216.5
21363.5
21742
22239.4
21418.6
21957.2
21991.7
21659.1
14716.5
15760.7
16349.9
17262.7
19195.8
16246.1
16035.5
18441.8
17566.7
17748.4
20232.6
19115.4
14684
19329.7
13758.7
15920
15719.4
12980.5
13530.8
14473
19702.9
18675.7
18937.6
13531.6
16103.2
14469.4
14615.7
15956.5
15112.2
17994.8
15024.3
16872.8
14269.4
13193.1
13223.4
17668
18679.7
19652.1
17472.8
18245.4
6569.47
6852.31
4559.78
10337.7
9429.89
12229.4
11433.3
8292.41
11620.2
11476.2
10163.3
8854.36
9313.19
9672.29
11598
10411.1
10925.9
10207.7
12248.5
11566.3
11539
12528.9
11245.5
11520
12294.1
12512
10287.5
12107.4
12001.1
11302.5
11482.9
10876.6
10705.5
11118.1
11066.9
10909.6
11417.3
9899.73
10251
11465.1
10223.7
11270.2
8082.97
10623.5
9419.97
11000.6
11216.8
8927.85
11952.4
8817.28
9446.94
11054
11708.6
11082.9
10789.4
10320.6
11598.5
7661.76
8950.69
10166.5
10750.1
9497.75
8690.51
9939.76
9256.65
9711.5
9621.48
12251.3
6251.99
9581.28
10185.1
8980.21
7617.59
7785.4
6490.16
12556.1
15306.1
20712.1
17277.8
21301.4
9932.74
17420.7
16911.4
9963
13787.3
21182.6
9159.75
20292.7
13171.9
15239.1
25648.9
10084.5
22915.7
10280.5
12171.4
10671.1
9168.88
16546.5
18396.6
6303.18
10378.7
10391.5
10069.6
9552.85
6947.65
16819.4
20872.6
14930.2
11982.8
14745.8
9730.71
16631.1
11890.5
16111
14872.7
10329.6
11508
18743.2
13792.9
11269.8
15583.3
17831.7
15996.3
12999.5
7916.59
25264.9
25379.3
25504.3
24393.7
24258.2
25275.6
25111.3
25789.6
24781.2
24245.3
23554.8
23415.5
19985.7
19347.4
21744.8
22354.7
22173.9
22840.3
22995.4
22372.7
20997.1
25339.1
24027.6
23541.8
23487.6
25083.9
21917
24502.2
22915.5
24003.6
22585.2
20888.5
25770.9
20327.3
24707.6
27153.9
24987.1
28083.5
25054.3
23228.6
26488.4
25635.2
25286.6
26290.2
25092
23336.3
21108.7
27100
27462.8
25645.7
26253.4
26383.6
23405.7
22318.7
23686.3
23387.8
24065.4
22399.2
21253.8
22204.6
24537.7
24875.3
20326.6
23142.8
24365.9
19896.6
21957.2
22194.1
21180.7
23419.1
24617.5
23971.9
19515.5
21359.7
23479.4
23590.3
19738.7
24711
20473
22945.6
22954.5
23817.6
23481.5
23933.7
24952.4
23013.7
21317.1
22124.3
23193.7
24360.5
23877.4
19638.9
23817.7
24272.4
22969.2
23696.5
24801.3
24633.7
24362.7
21927
22330.2
23482.5
24037.7
23705.2
23978.5
21072.9
23197.5
23084.9
23324.7
25205.3
23068.1
20541.4
22016.3
22313
24313.2
22511.9
23523
22460.9
19474.2
20344.3
19071.1
18644.5
20245
18885.2
19365.2
20105.2
19730.5
18572.4
19052.2
19789.9
19499.1
19248.9
18277.2
20391.5
20772.7
21168.5
21982.3
21620.8
21786.2
20836.1
20752.4
21348.3
19721.6
20378.1
20942.2
21199.4
19627.1
22564.1
24660.3
23476.4
21516.5
23517.1
23669.3
22192.9
24573.7
21232
23977.3
22405.8
20651.6
22813.9
22417.4
22130.6
21953
21270.7
20705.8
20448
19687.2
18620.7
19192.2
19474.8
20394
20712.6
20515.8
20888.3
20662.3
20026.4
18616.4
20221.1
22526.8
19711
21502.1
20612.3
20204.7
20995.9
19363.9
20028.7
19757.7
19737.3
20745.7
20731.9
21833.2
21959.2
21025.7
19949.1
22131.3
21725.3
19694.8
21081.1
18570
20165.7
21493.4
23544.7
23363.5
20246.7
21966.5
21477.9
22708.8
22497.7
21836
20364.2
19196.9
21055.4
22350.1
22320.9
20521.8
22324.1
20663.3
21416.2
21827.1
22139.1
22355.7
20059.5
21576.6
19244.1
19628.2
22245.2
20688.8
22786.9
21177.9
22250.6
19084.7
20467.6
22119.6
22561.1
19036.9
22616.5
22394.3
24889.6
25767.2
22014.9
25067.8
25199.4
24636.3
24585.3
25254.3
23640
24762.8
25272
25518.4
23403.2
20188.3
21702.6
25079.7
23801.4
23083.2
19545.8
20492.6
20584.1
19140.3
20639.5
21010
19202.7
22030.9
18896.9
19875.8
20751
20620.3
20740.3
23224.2
20813.9
22552.2
21552.2
21180.7
22406.6
22097.2
22966.5
21775.5
23132.4
22577
22616
21221.8
20422.5
21463.3
22464.3
20986.6
22189.1
21069
21388.3
21085.2
21316.5
21110.3
20990.8
21968.5
20200.7
21676.1
19970.8
22221.2
20469
21233.4
21112.6
20344.6
20652
22652.9
19150.3
20373.4
18836.9
22291.7
20356.3
20539.2
20202.1
19597.3
19667.4
20330.5
21262.7
19658.2
21586.2
20758.8
22085
22728
19567.8
24067.3
21305.8
21912.8
22292.2
19981.4
21292.2
24168.1
24794.8
22313
19661.3
22449
23226.8
25167.7
23910.8
23881.9
20658.9
22643.5
20359.2
22661.4
21154.2
22320.9
21779.2
18908.7
24263.9
23645.8
21540.1
22675.8
23721.1
23211.2
22282.8
23186.7
20918.7
21668.3
22598.2
20599.7
21161.5
21114.5
17650.6
19611
17598.6
16909.8
20734.6
23980.1
23177
21826.8
22170.7
20789.3
22270.8
21370
21602.3
21050.2
20012
21451.2
18740.1
20093.1
21045.8
22268.7
21129.4
21830.2
22336.6
22135
22368.3
23420.7
23156.7
22323.4
24731
22888
22449
24746.9
20683.7
21647.3
22197.5
23258.4
24153
21395
22741.2
24614
23626.8
22567.5
20423.1
19390.4
20209.2
22208.3
20820.9
22143.5
20644
19896.1
19586.1
20120.2
22546
18390.7
19326
20024
22000.2
20318
18335.3
19487.7
20561
21190.8
18052.2
22146.5
19444.9
21794.2
21791.5
17926.9
22777.8
18315.8
19833.5
20287.6
20371
18367
17809.7
19503.5
22585.1
19191.7
22044.7
21209.3
23329.9
21582
24918.6
20804.8
20622.8
21012.6
20527.8
18985.7
22774.7
23086.6
22489.4
24640.1
23399.5
19873.5
25113.7
21073.1
24372.8
21295.5
21925.7
23321.8
20603.9
20331.8
21560.1
23535.6
22879.5
23110.5
22908.5
23905
21424.4
21896.1
23697.6
22794.9
20760.8
23074.5
22990.7
19878.1
22099.1
20920.3
21612.3
22817.9
22033.7
19905
18589.5
20385
21726.2
21099.5
19687.6
20593.8
19265.1
21221.7
22228.3
21845.2
21998.8
22682.3
16663.9
14381.6
17582.7
15243.2
14851.9
13477.2
17234.8
14613.3
17216.5
16728.7
18138.8
16934
15937.7
18666.4
19512.4
18117.2
18608.8
17875.8
14570.6
17795.1
17760.5
18036.1
16482.8
16329.5
17797
15449.1
15965.2
16444.5
16271.1
14654
15282.8
14907.2
13632.9
14430
15510.8
14801.3
14806
15709.6
14549.7
14569.7
15038
15774.8
17041.6
19471.5
17496.1
16787
18447.2
18686.1
17146.3
20220
20918.7
17140.3
19497.5
13791.4
7103.37
8180.82
9919.23
9298.22
11618.6
10648.1
11403
11820.8
10417.8
12007.1
12549.4
12330.7
12075
9808.79
11739.6
12168.3
10289
12637.1
9410.28
12296.2
12581.4
8969.85
11889.1
10201.1
11068.6
11865.3
12702.1
11914.2
11668.1
6608.92
10150.1
12830.6
10900.7
7574.41
8952.2
9450.27
9427.91
7832.11
9094.79
7813.91
11509.7
10907.3
9145.71
10710.8
9630.44
8955.76
9380.33
10485.5
7988.53
12609.7
11542.6
12201.6
12561.4
10816.3
12149.6
10827.9
7832.15
12253.5
9993.48
12957.2
11637.6
12134.5
7151.1
12285.6
12216.7
10305.9
10598.4
13326.7
11482.7
10942.1
11318.3
11141.2
11055.5
11770.6
9330.26
10199.5
10547.2
8818.61
9511.76
8369.24
10969.9
11413.8
9182.33
9877.5
11858.3
8051.49
5858.04
9375.37
8710.28
11239.3
10595.1
7232.8
11358
12151.8
12762.8
12490.1
10582
13315.1
11987.4
12060.7
12215.5
11082.6
12925.2
14996.6
13002.7
14078.6
11733
17622.4
14498.8
13279.9
9111.07
18073.7
13008.8
23375
12179.3
13248.9
11175.6
16685.1
11346
23763.5
21368.4
22611.5
21960.4
21287.6
15519.4
23949.8
9955.69
20578.9
17951.7
22444
14752.8
12386.5
17185.2
23279.7
13244
13602.3
13757.6
17320.6
10716.1
11997.2
15156.7
12325.6
12389.6
12286
11713
12971.3
20071.7
14471.4
14375.3
19199.1
22240.7
12370.9
15992
7797.93
8980.89
11029.6
14295.7
9456.97
20580.1
17959.4
8798.17
19222.6
16152.6
12635
23621
14687.8
13444.1
14273.9
13672.4
26845.8
10425.9
16356.3
16477.1
17628.3
13845.5
21558.1
17338.8
12918.7
22552.1
8716.81
11209.7
23775.1
22064.9
22596.2
22645.1
26248
24990.6
24877.4
24919.6
24693.4
25714.8
23148.5
21721
24963.5
24225.6
23687.2
25546.9
23907.7
23358.6
23421.9
23386.4
24429.9
22895.8
24957.6
24938.3
22263.2
23988.1
22465
22656.6
21682.2
21499.4
25000.7
21870.5
21348.4
24187.3
20608.1
22122
21345.8
22835
20735.1
22408.6
21511.8
22414.5
24905.7
21047.2
23084.5
22852.2
23094.7
21486.7
23043.1
23852.1
22517.8
24523.5
22827.3
23016.6
22920.2
22501
22863.5
22614.1
22183.3
21907.8
22291.1
20953.4
22763.3
25268.1
22396.7
24231.5
23895.8
26976.6
25346.6
21807.9
26251.6
22906.9
27678.5
23720.7
22682.9
25460.2
24103.1
27358.9
28244.7
25132.6
23670.4
25121.8
22599.3
25591.5
25860
23278.6
24305
25060.5
21059.2
21891.5
21995.3
21502.7
20944.7
22420.5
22947
24264.2
20876.9
20879.3
21099.7
20925.8
20034.5
19907
20664.3
21097.8
21008.8
19893.2
20598.3
24082.7
22107.4
20043.8
21340.9
21384.5
20537.2
20898
19220.7
19069.2
19872.4
20184.9
20028
22282.7
21701.8
20398.3
20451.5
20830.2
24601.7
24111.2
23810.5
19454
19293.3
20267.5
19412.2
19938.4
22393.9
22491.3
22041.8
20032.3
24336.1
22452.8
20569.5
19494.7
22410.5
19487.5
20884.1
19566.5
19097
20968.9
20711.4
20358.4
21619.2
20097.8
22034.7
21012.9
20957.1
20234.7
20639.7
21960.9
20918.9
21915.6
22297.2
21952.4
23472.4
22612.9
21417.8
22603.4
21839.4
21706.8
22681.7
22460.1
22582.1
23482.2
23828.1
22419
21687.6
23208.9
23019.4
23424.7
23733.2
22677.9
20244.4
20943.2
21310.7
21488.8
21681.3
21551.3
21306.6
22207.6
20822.6
21420.2
22539.1
22493.7
22108.4
20925.3
20629.6
21742.8
21804.7
21545.4
20857.2
22975.1
22277.1
23171.5
20462.6
21916
21847.8
22367.9
20068
21569.7
21834.1
22231.7
22396.3
23445.6
21674.4
21189.1
20801.4
19952.6
21007.6
21269.4
23153.8
20816.6
23104.2
19094.9
23544.2
19572.4
20682
19902.5
20300.1
20627.1
22680.6
24101.1
20706.9
22631
22734.4
22371.7
24007.1
22028.9
24137.7
22056.8
23765
22982.6
22726.5
21808.5
22420
22261.6
21828.8
23888.2
22357
23345.8
22445.3
23357.6
22037.5
24684
23208.9
23869.1
21525.2
24454
21529.1
25174.5
25440.6
23695.4
25789.4
23197.2
24956.7
24116.2
23680.2
23916.6
25149.4
25095.7
21742.2
21437
20237
22522.8
21422.4
20125.3
22617.5
19580.9
23173.2
21670.7
21502
21262.4
19355.8
21385
19971
23117.6
21852.2
20968.2
22598
22945.3
22509.5
18852.5
22260.5
19671.7
20921.9
20904
23326.8
22228.1
22559.7
21304.7
19247.1
21741.6
20402.2
21278.1
20729.9
20235.5
22453.9
18364.6
19530.1
22900.2
21612.1
23112.9
17741.1
19983.5
18370.5
19529.8
21446.7
20344.1
21329.3
22993.9
21454.7
22031.8
22500.6
22280.4
21682.8
21873.7
21697.6
20228.2
20408.9
22034.2
22663.1
22741.7
18636.9
23323.1
23468.1
22638.7
23748.7
21564.8
23067.4
20079.6
21500.4
22734.1
23444
22404.5
22893.5
20792.6
23109.5
21753.4
22287.3
21268.2
21757.5
22518.3
21942.6
21055.8
21603.4
21324.9
23487.2
22320.1
21255.9
21426.7
21587.4
20994.3
21380.3
20144.6
20961
22780.7
22140.6
22051.2
21631.2
22424.4
21096.5
22147.9
20393.1
22916.2
21398.7
24209.4
24469.1
22469.7
22708.6
22293.8
22270
22152.8
23920.9
23587.8
23763.2
21758.1
19817
21776.2
21513.7
24246.8
24106.3
23360.2
22309.1
22408.3
22684.5
23350.5
21333
22553.5
23157.5
18548.7
20071.1
20961.8
21840
19272.5
21078.7
22418.8
22408.7
19747.1
18256.2
18336.7
19980.4
19343.5
21344
22302.6
22899.2
23053.8
24033
21188.5
23339.9
23161.8
22171.5
21181
22417.1
23260.9
21720.4
21355.2
21271.1
21591.9
23323.8
24399.9
18775.6
18354.9
17782.7
18629.6
19257.6
19670.7
19462.5
20282.7
21915.5
20672.3
21770.8
21279
18020
17971.9
19366.2
19918.6
20299
19751
20491.3
21040.7
18813.3
19656.7
19714.2
19869.7
18988.1
19117.3
19541.9
20106.5
20025.9
20522.8
19485.2
19410.2
21352.8
19992.4
19888.8
21111.4
20364.4
23706.4
24312
25830.5
25169.3
26187.9
24883.3
22797.9
27041.8
27253.7
25290.8
23256
26110
27403.2
26717
25865.2
23138.2
23727.7
22806.8
21883.6
24333.6
20772.7
19724.8
20801.7
24013.1
20703.2
22940.3
22859.6
20654
22527.4
21663.2
20910.5
18195.5
21886.2
15134.7
21737.4
12434.1
19489.2
21357.9
19827.9
17016.1
22868.2
22150.9
19846.6
23258.1
17962.1
42950.1
51369.6
51620.7
35377.5
46791
40706.6
53274.8
50449.1
42347.4
25582.2
35966.1
33429.7
46093.3
49978.8
41451
29873.9
16721.7
17067.6
15621.6
15750.3
16908.4
16030.1
17870.4
17826.8
18185.1
16470
17846.5
14044
18403.2
19013.2
17821.2
18778.3
18253.2
20352.5
19954
19964.9
19507.4
19991
18460.9
18553.6
18531.5
18888.3
20108.7
18490
18210.3
20375.8
17660.2
18848.8
17948.2
17565.7
18743.6
19172.6
17809.3
16466.7
15055.4
16475.3
16059.2
15260.5
16185.3
16194.5
14929.2
15820
15260.1
15637.1
14186.3
14781
15594.4
14637.6
14747.4
16184.8
15922.1
15570.8
14935.9
15878.5
16056.1
17653.8
17847.2
16867
15327.1
15527.6
11730.6
14834.6
15417.1
16876.5
14011.1
15122.5
14455.4
4819.63
6857.23
5831.89
10490.3
9643.42
7139.21
11672.9
13779.2
13210.9
13132.7
13291.7
13829.7
12854.9
11760
11649.9
8998.3
13437.5
12336.5
11073
11839.5
8639.55
13053.1
11131.1
11431.9
11950.3
11587.8
9463.61
11395.1
10860.6
6791.36
11636.9
11227
10890.3
11120.9
9961.94
11541.9
9287.35
12087.9
8780.79
9482.42
7239.16
13713.5
8697.71
13160.4
10889.8
11795.5
10779.5
10553
11717.9
8942.18
12710
9260.6
10289.5
7043.09
7880.12
7593.1
9730.19
12909.8
4094.73
6573.41
9032.47
7803.84
8973.43
11388.2
8340.83
7546.24
10794.8
10265.4
10657.8
11744.3
10270.6
8601.51
10197.9
7299.13
8904.67
9656.29
8104.32
8870.59
12029.5
11425.1
8845.66
9581.32
10871.1
12710.5
10469.9
10599.6
10837.7
13037.3
11765.2
10565.5
11144.8
11145.2
8123.94
11272.9
12881.2
11349
11710.6
23129.4
11306.5
11638.5
12230.4
11066.2
11672.1
13371.5
15430.2
10772
19347
12485.8
17810.6
15497.2
15997
13237.5
12283.3
12643.5
13169.2
17678
20309.3
19559.4
15501.7
19915.5
16149.2
13174.5
8410.77
17805.1
13363.8
12234.8
10727.9
13573.6
13027
12619.1
10910.1
17032.6
14378.9
17207.3
14829.3
17217.6
9330.31
17139.7
8560.8
12409.4
12826
14753.5
11645.5
13702.6
13739.4
12165.8
14353.1
12842.3
13031.5
13199.7
11434.5
12423.7
12909.1
11091.7
11266.7
13307.3
13451.4
13274
12086.5
11062.6
11668.9
13347.5
11934.9
14003
11820.6
12188
11033.7
12120
11568.6
11126.5
12064.9
11845
11531.5
14159.6
11913.2
13642.3
11093.4
13338.9
11483.2
14751.7
11281.9
13099.2
8721.49
17007.5
10252.9
11375.1
8934.34
18097.8
21692.5
13871
12383.8
17559.5
15296
13665.9
23136.2
21011.1
23703.6
25086.6
22766.6
25686.4
24865.3
23560.6
23915.3
26321.3
21568.1
23056.1
23977.4
21887.8
22391.6
22567.8
21027
21991
22381.3
22076.2
22369.5
21056.3
18521.4
20350.3
22377.2
21190.1
20829.3
23340.5
20695.4
21601.6
23049.3
21422.4
21072.7
21322.9
22856.2
20856.5
20058.6
20262.2
25218.3
23874.9
22842.9
20629.4
22243.4
19844
22272.5
22296.2
24016.9
21638.4
22826.7
20817.2
21689.8
23059.6
21291.7
23881.2
23528.1
23382.1
20671.1
19691
22022.1
22229
22478.3
22053
20369.7
23353.5
22418.3
22322.4
24929.6
23323.9
22378.5
23619.2
20452.7
20748.9
23384.3
20540.9
22336.8
21274.1
23129.5
22483.1
23062.4
21760.1
23008.5
23258.7
21745
23387.4
20174.4
20641.3
19553
21852.3
22647.7
20021.9
21966.4
23203.7
21214.5
22495.7
21035.2
20843.6
20814
20158.9
20445.4
20885.6
20480.6
20655.3
20827.9
19876.5
20668.7
21092.6
20703.5
20957.7
21149.6
22966
21825.1
21816.9
21929.7
22028.1
21798.6
22203.5
19925.2
22474.2
22668
21966.1
23036.1
21367
21497.3
21503.5
21789.5
21285.1
21980.1
22372.3
21795.8
22330.8
20737.2
21453.4
22104.5
22220.6
21409
22190.6
20065.1
21857.7
21549
22071.7
21700.2
21989.9
21876.1
22245
19374.2
19863.9
20927
20947.4
22021.1
20186.8
20596.2
21574.6
21908.7
21840.1
21625.5
22969.8
21967.1
20804.7
20748.4
21703.5
21663.9
21169.7
21731.8
20265.7
23347.1
20012.7
23663.6
23972.7
23425.8
22431.6
21703.7
21883.5
23151.5
23716.6
23125.6
20243.4
20647.2
21798.7
21647
21762.5
22767.7
23128.5
21503.1
21567.1
21336.8
22915.6
21776.2
21811.1
22186.1
21914.1
21945.4
22476.2
21221.5
21705.5
19715.6
20898.4
19341.4
21578.3
21026.7
20552.6
23427.4
20208.8
21128.6
21795.4
21157.5
19384.5
19616.1
22489.1
19960.9
20953.9
20421.9
21138.1
22937.6
19454.9
18577
21781
24068.4
21843.9
20630.7
19313.9
23269.3
20544.7
20909.8
20319.9
18893.9
19542.5
22175.3
22461.2
19462.2
19135.8
20628.8
21290.9
19750.5
21860.2
22784.7
19725.8
20714.4
22188.2
22061.1
22610.8
23169.9
23044.5
22999.6
21859.6
23762.1
21835.3
23465.3
23561.8
22124.9
21047.9
22281.5
23253.5
21388.7
21690.8
20984.8
22192.9
20613
24611.6
22407.3
20899.5
22912.6
22305.7
24283
25542.1
23604.3
24358.3
21222.9
18026.9
19565.3
20736
22378.6
21278.1
19580.9
21185.9
22796.7
21527.6
21755.6
22683.7
23142.5
21158.2
21012.2
21168.7
20657.3
20310.5
21903.4
20962.4
20482.4
21090.9
23291.2
21664.4
23071.5
21545.5
21011.8
23138.2
22144.2
20174.3
22899.9
20672.1
21026.5
24147.7
20583.1
20450
22545.1
20128.1
19363
23676.9
19882.9
20123.1
22123.1
22112.3
23494
21282.3
21327.4
22944.5
21297.5
20964.7
22306.4
21828.4
22185.9
22835
20859
22744.5
20955.7
23839.2
21487.1
22520.4
22528.3
18649.4
20014.5
21806.4
18119.8
19186.9
20121.8
23346.4
22342.1
21884.9
20046.1
19921.5
22018.7
23494.4
18318
23333
22450.2
21654.4
20273
19873.9
20122.9
19839.5
21615.2
19039.9
21788.2
20535.7
21591.8
20765
21081.6
20958.6
20781.2
20836.9
21824.7
20228.4
20669.5
20699.7
20690.4
21525.1
21687.9
20897.7
20576.5
22825.1
22867.7
21412.9
21375.9
20857.6
18816.5
21815
22133.9
21043.5
17839.2
19079.9
20269.3
22774.6
21403
23181.8
23671.7
20035.9
20594.1
20755.9
18655.5
20793.5
21466.1
18994.5
18762.2
19481.2
23313.7
21312.8
23831.5
22077.8
23086.6
22033.7
23917.4
21327.6
21295.2
23215.8
22842.3
21365
20942.3
23866.4
24081.2
21310.3
22412
23172.2
22965
21932.1
22329.6
22792.9
23026.5
21246.1
22299.4
22299.7
22252.4
21761.9
21295.4
21221
22358.8
23068.7
22762.9
19500.6
21371.5
20184
21873.2
18280.2
19423.2
18997.3
21728.5
19448.1
22380.2
19072.9
19789.7
22372.9
19812.9
21098.4
20942.6
19456.8
20578.6
20638.5
18976.8
19745.2
21369.9
21430
21004.8
20818.5
21429.5
21313.2
18939.8
20861.6
19836.5
20695
20214.7
19703.8
20737.8
20191.3
19387.3
20258.4
19521.3
19648.6
19584.9
19554.5
20766.7
21297.4
21990.9
21851.8
20053.2
22283.8
21928
21183.6
21492.2
19431
20704.7
22207.7
21013.6
20081.6
19483
19861.1
17766.2
18225.6
18551.9
21797.8
19755.4
23827.3
23023.5
20493.8
22883.1
21352.2
23250.6
21934.7
22716.1
22445.8
22370.1
21940.7
19156.6
21402.5
22498
21806
20529
23335
23027.2
21189.9
22090.6
23056.6
22654.7
20446
24401.9