# vtk DataFile Version 3.0
Happy Go Lucky
ASCII
DATASET POLYDATA
POINTS 14290 float
-0.605369 0.538262 -0.696292
-0.636156 0.542215 -0.708538
-0.608611 0.555078 -0.719477
-0.632076 0.569958 -0.725828
-0.650721 0.573013 -0.70174
-0.609695 0.573669 -0.733437
-0.642904 0.596207 -0.717785
-0.62147 0.596467 -0.740267
-0.589636 0.567354 -0.697867
-0.593316 0.57172 -0.723841
-0.593125 0.587854 -0.740044
-0.580985 0.590338 -0.717225
-0.597511 0.63909 -0.760564
-0.632799 0.646753 -0.735015
-0.615592 0.654432 -0.754113
-0.643897 0.666613 -0.71837
-0.629211 0.673646 -0.742833
-0.609705 0.679716 -0.762076
-0.59737 0.661263 -0.764701
-0.596658 0.612281 -0.753003
-0.646401 0.617224 -0.708501
-0.636456 0.620276 -0.728221
-0.619358 0.627491 -0.74866
-0.644714 0.639109 -0.71267
-0.660938 0.690775 -0.696674
-0.641991 0.694876 -0.728622
-0.566687 0.674214 -0.750982
-0.575388 0.609156 -0.737109
-0.573957 0.630011 -0.755458
-0.570331 0.635469 -0.730747
-0.572947 0.644954 -0.706814
-0.575299 0.617365 -0.711418
-0.567784 0.650931 -0.746654
-0.577319 0.654453 -0.765561
-0.569189 0.662268 -0.727304
-0.57362 0.673314 -0.70256
-0.584102 0.679925 -0.771506
-0.571417 0.694421 -0.726726
-0.703398 0.778359 -0.700152
-0.623319 0.72905 -0.758435
-0.645258 0.743585 -0.740884
-0.59835 0.744452 -0.768861
-0.68851 0.753131 -0.698551
-0.6233 0.75758 -0.759753
-0.596317 0.761273 -0.703071
-0.679954 0.775254 -0.718622
-0.596954 0.773298 -0.758477
-0.644235 0.77233 -0.749621
-0.660166 0.764378 -0.733266
-0.598364 0.796571 -0.740959
-0.666621 0.746912 -0.71759
-0.604112 0.781821 -0.713221
-0.622081 0.783 -0.757493
-0.62474 0.70073 -0.752199
-0.598667 0.709764 -0.771174
-0.638298 0.717745 -0.740564
-0.654309 0.720232 -0.720056
-0.663607 0.788026 -0.741891
-0.673982 0.726559 -0.696797
-0.581563 0.744574 -0.719596
-0.577822 0.751762 -0.747873
-0.576438 0.720491 -0.713795
-0.572783 0.724686 -0.738081
-0.574443 0.729856 -0.764202
-0.568047 0.703216 -0.758587
-0.576841 0.702477 -0.696
-0.590373 0.769288 -0.728914
-0.706436 0.801258 -0.723303
-0.617293 0.808002 -0.710168
-0.675664 0.809316 -0.722688
-0.65158 0.814749 -0.728614
-0.653935 0.815068 -0.700674
-0.68126 0.819466 -0.695343
-0.63515 0.805063 -0.753693
-0.688208 0.484976 -0.5991
-0.640801 0.489847 -0.655774
-0.620522 0.492001 -0.615586
-0.682817 0.457522 -0.597248
-0.656634 0.460647 -0.619765
-0.631212 0.470694 -0.605262
-0.635662 0.477126 -0.632132
-0.680364 0.479379 -0.620207
-0.66219 0.480117 -0.641752
-0.620586 0.497216 -0.640514
-0.674743 0.548151 -0.633652
-0.667464 0.550345 -0.658517
-0.658562 0.549273 -0.685552
-0.62551 0.518357 -0.689572
-0.678435 0.525545 -0.622747
-0.663504 0.525816 -0.671598
-0.672469 0.525773 -0.647242
-0.683748 0.526342 -0.598814
-0.595337 0.550054 -0.671263
-0.677784 0.587415 -0.625205
-0.684347 0.585859 -0.605073
-0.662323 0.580742 -0.66994
-0.672013 0.572365 -0.641831
-0.606536 0.525728 -0.671192
-0.678512 0.56778 -0.61972
-0.683788 0.565477 -0.600787
-0.648846 0.525962 -0.689996
-0.600893 0.532232 -0.60616
-0.600501 0.536029 -0.631818
-0.600544 0.537089 -0.653253
-0.60911 0.51846 -0.647549
-0.664431 0.502544 -0.658157
-0.677118 0.502349 -0.634977
-0.682825 0.503774 -0.610468
-0.620731 0.504135 -0.66603
-0.645539 0.507154 -0.675673
-0.610929 0.508735 -0.598825
-0.61008 0.51378 -0.623227
-0.680673 0.547132 -0.610779
-0.580853 0.598529 -0.690331
-0.593217 0.556451 -0.645433
-0.587281 0.576902 -0.636816
-0.586125 0.579694 -0.663986
-0.591571 0.559671 -0.616628
-0.585587 0.58941 -0.617151
-0.732656 0.6925 -0.595773
-0.714256 0.688086 -0.613644
-0.696783 0.680209 -0.633179
-0.695696 0.62786 -0.597242
-0.700866 0.664624 -0.613906
-0.606468 0.689709 -0.598494
-0.597243 0.68974 -0.623441
-0.676284 0.686559 -0.669994
-0.681098 0.671726 -0.653293
-0.66742 0.665646 -0.674457
-0.690813 0.639771 -0.615514
-0.672579 0.599809 -0.64305
-0.653669 0.629199 -0.69165
-0.672293 0.647222 -0.657043
-0.661881 0.643164 -0.676614
-0.654685 0.655617 -0.694679
-0.686167 0.655382 -0.634963
-0.664082 0.618667 -0.66674
-0.677513 0.628727 -0.638554
-0.683752 0.610976 -0.615945
-0.653378 0.602328 -0.692629
-0.691553 0.695723 -0.652844
-0.581601 0.621903 -0.645951
-0.583118 0.619382 -0.620587
-0.58121 0.610613 -0.665286
-0.583304 0.599679 -0.641612
-0.586674 0.687191 -0.649287
-0.585935 0.667214 -0.6314
-0.593748 0.670977 -0.606903
-0.579977 0.661745 -0.656762
-0.575842 0.654234 -0.681991
-0.585171 0.647929 -0.613015
-0.577967 0.681552 -0.67573
-0.581918 0.642645 -0.638649
-0.579413 0.636472 -0.662773
-0.5768 0.626996 -0.686496
-0.760046 0.747361 -0.638443
-0.711154 0.759445 -0.682332
-0.782704 0.748864 -0.616688
-0.719302 0.743599 -0.662289
-0.75449 0.708782 -0.597383
-0.779058 0.725546 -0.598264
-0.696175 0.735969 -0.677553
-0.73154 0.729889 -0.638523
-0.740511 0.750161 -0.653164
-0.757263 0.727569 -0.618043
-0.704697 0.720665 -0.655665
-0.732644 0.709872 -0.615112
-0.711161 0.704808 -0.633983
-0.733695 0.76544 -0.669253
-0.757267 0.769471 -0.655483
-0.767654 0.772963 -0.595781
-0.773222 0.77585 -0.629816
-0.723649 0.786073 -0.684203
-0.716384 0.786355 -0.60824
-0.698149 0.793943 -0.61672
-0.750682 0.793941 -0.608128
-0.762569 0.795583 -0.641034
-0.753506 0.798956 -0.672406
-0.613277 0.710351 -0.612942
-0.682959 0.709759 -0.674332
-0.601023 0.711622 -0.640653
-0.634007 0.726509 -0.599311
-0.604015 0.734735 -0.660145
-0.622708 0.736617 -0.629778
-0.649047 0.748023 -0.609598
-0.607621 0.75682 -0.678755
-0.623294 0.757474 -0.654926
-0.643418 0.761063 -0.634324
-0.666099 0.766956 -0.618742
-0.62453 0.772952 -0.67303
-0.690635 0.775766 -0.609937
-0.660332 0.777008 -0.638303
-0.614191 0.778158 -0.692642
-0.644787 0.77979 -0.658185
-0.680081 0.784497 -0.630766
-0.627434 0.794694 -0.677277
-0.662315 0.798018 -0.643106
-0.587702 0.708995 -0.668577
-0.588118 0.733737 -0.690655
-0.724948 0.805465 -0.633817
-0.707237 0.808093 -0.691895
-0.716706 0.813458 -0.666928
-0.695506 0.804557 -0.643815
-0.66042 0.806461 -0.674248
-0.688216 0.815418 -0.669251
-0.704634 0.476131 -0.522258
-0.712203 0.424537 -0.502761
-0.703668 0.426588 -0.527678
-0.70509 0.451796 -0.539849
-0.704193 0.497388 -0.503213
-0.69665 0.453165 -0.567576
-0.699689 0.478862 -0.549861
-0.711099 0.450029 -0.513497
-0.625409 0.472539 -0.574091
-0.678349 0.416819 -0.528253
-0.694183 0.411497 -0.512793
-0.672512 0.410956 -0.504046
-0.653246 0.423669 -0.517621
-0.659303 0.428005 -0.544941
-0.688978 0.429315 -0.550692
-0.669598 0.437295 -0.57207
-0.633994 0.439423 -0.502154
-0.63656 0.442402 -0.530645
-0.639804 0.445079 -0.560566
-0.64746 0.449827 -0.591248
-0.620899 0.461734 -0.513332
-0.623801 0.466353 -0.541983
-0.605684 0.48001 -0.495886
-0.693846 0.480579 -0.577453
-0.609888 0.485715 -0.522563
-0.620048 0.488798 -0.593645
-0.612272 0.492318 -0.549687
-0.709661 0.596126 -0.534418
-0.701012 0.538144 -0.523666
-0.699208 0.506759 -0.530534
-0.703263 0.521444 -0.506892
-0.698765 0.553127 -0.541498
-0.706848 0.568718 -0.521468
-0.699731 0.574998 -0.550322
-0.715907 0.592311 -0.512819
-0.686176 0.549427 -0.587991
-0.692464 0.552293 -0.563568
-0.688188 0.504588 -0.586747
-0.69335 0.504754 -0.561031
-0.597576 0.504135 -0.504154
-0.600791 0.517748 -0.555322
-0.601396 0.525479 -0.580491
-0.688843 0.528003 -0.574293
-0.599361 0.510403 -0.529801
-0.690992 0.576794 -0.579597
-0.612147 0.500927 -0.575131
-0.694613 0.53057 -0.54877
-0.584448 0.591881 -0.551261
-0.58539 0.590969 -0.575508
-0.583728 0.582809 -0.524702
-0.582908 0.577821 -0.498446
-0.58715 0.577288 -0.593097
-0.587487 0.569593 -0.568315
-0.58614 0.563188 -0.542883
-0.585378 0.556266 -0.516963
-0.592699 0.551039 -0.587446
-0.592599 0.543621 -0.561502
-0.590849 0.536239 -0.536068
-0.590202 0.529396 -0.51056
-0.799273 0.690707 -0.51047
-0.728602 0.649705 -0.551452
-0.75914 0.66269 -0.537281
-0.76208 0.644508 -0.509675
-0.716771 0.672864 -0.594931
-0.750645 0.691029 -0.578688
-0.736603 0.638305 -0.525668
-0.768826 0.685706 -0.559334
-0.707477 0.631839 -0.57251
-0.789925 0.682328 -0.538135
-0.741874 0.624715 -0.501744
-0.716209 0.622812 -0.543326
-0.731861 0.678722 -0.58056
-0.72745 0.602896 -0.496189
-0.702069 0.601756 -0.561254
-0.722986 0.613755 -0.518364
-0.720675 0.660242 -0.575118
-0.786198 0.663322 -0.515221
-0.742531 0.672447 -0.562792
-0.704871 0.649802 -0.594517
-0.618782 0.681322 -0.549133
-0.602572 0.663155 -0.562957
-0.596613 0.642483 -0.541776
-0.595503 0.625266 -0.499193
-0.618581 0.665144 -0.510387
-0.693391 0.606106 -0.58851
-0.603004 0.645029 -0.51646
-0.609996 0.663057 -0.534557
-0.601323 0.673273 -0.586306
-0.623619 0.677999 -0.527828
-0.636048 0.684632 -0.51037
-0.613175 0.686112 -0.574018
-0.635652 0.694092 -0.535122
-0.585449 0.629555 -0.592441
-0.587069 0.619288 -0.547293
-0.585064 0.61237 -0.571214
-0.585414 0.604423 -0.530973
-0.58947 0.63773 -0.566989
-0.586341 0.603092 -0.509698
-0.59197 0.654405 -0.588108
-0.59141 0.623698 -0.523839
-0.584788 0.60331 -0.594889
-0.795158 0.709986 -0.529763
-0.778793 0.747921 -0.562233
-0.786515 0.751393 -0.586679
-0.697555 0.753513 -0.569254
-0.752034 0.736962 -0.519729
-0.727904 0.762708 -0.565919
-0.735756 0.777669 -0.589268
-0.755922 0.75814 -0.558863
-0.792434 0.704525 -0.556843
-0.774913 0.705306 -0.578979
-0.784792 0.710846 -0.508811
-0.764819 0.720685 -0.500936
-0.710165 0.726395 -0.501618
-0.776126 0.726784 -0.52349
-0.769025 0.761554 -0.575019
-0.751519 0.768883 -0.575637
-0.739675 0.750491 -0.540713
-0.712075 0.747126 -0.545508
-0.793777 0.727738 -0.573366
-0.73809 0.728749 -0.498205
-0.788437 0.729906 -0.54615
-0.698318 0.732445 -0.527022
-0.724688 0.739057 -0.521155
-0.765966 0.743608 -0.540759
-0.707014 0.769273 -0.588645
-0.622805 0.7056 -0.586391
-0.650358 0.711832 -0.546773
-0.673746 0.722031 -0.535353
-0.664554 0.728242 -0.560612
-0.656998 0.737004 -0.584652
-0.686819 0.738178 -0.551403
-0.676418 0.742918 -0.571839
-0.677208 0.756526 -0.593006
-0.642921 0.718347 -0.573072
-0.684253 0.717702 -0.509009
-0.630048 0.70025 -0.560611
-0.657684 0.704409 -0.517029
-0.302011 -1.05493 -0.414544
-0.304759 -1.03313 -0.418534
[...]
POINT_DATA 14290
SCALARS scalar float
LOOKUP_TABLE default
21280.2
20091.8
20872.6
20682.9
20203.7
22022.8
22158.7
22842.4
21780.6
21974.4
22251.2
22966.7
25261
23664.8
25076.9
20873.2
22552.1
23491.2
25036.6
23514
23055.1
23733.7
24214
23099.9
18502
19525
22835.2
23137.2
22753.7
25413.4
23958.8
24283.7
24619.6
23034.9
24647.5
21738.2
21248.3
22166.4
21347.4
21091.1
21523.4
19104
20725.3
21293
21728.2
21435.9
18726.9
21189.5
21639.6
16181.3
20400.2
21612
19425.3
21549.1
19779.6
20561.3
18889.5
19125.2
18707.5
21458.3
19649.5
20497.8
21136.1
17696.2
19300.6
19400
21663.1
22539.8
23052.6
30386.8
27567.4
30854.8
32246.5
21101.3
23073.9
23911.2
24916.3
18941.6
19624.4
21762.5
23064
22159.6
22276.3
25643.7
25524.9
23218.9
21022.5
21958.8
26636.1
23365.9
25513.7
25949.3
22782.4
23455.7
24065.4
19710.9
22851.1
24120.9
25287.5
25405
21771.6
23379.8
24567.1
24754.5
26113.7
23905.2
24915.2
25730.7
23963.5
23504.5
23878.7
25595.2
26338.1
22280.2
23061.8
22263.4
21467.9
22674.1
22659.9
23607.8
23130.1
22746.3
21717.6
23325.4
23314.2
21840.6
20853
22440.8
21692.7
22402.6
21070.4
22429.4
22183.2
22145.5
21657.2
22711.3
20661.3
21535.3
22332.8
21007.8
21492.5
23065.9
23094.9
22317
22407.5
20613.8
22884.5
23789.5
22273.2
22177.7
23518.8
20215.4
23359.3
22999.9
22911.3
20286.1
21804.6
18570.7
21801
23493.6
21929.2
20541
21402.7
21543.1
21911.4
20914.5
22210.8
21571
21425.3
18997.9
21979.6
17702.9
20536.3
21409.9
20554.1
17997.6
15497.5
13535.7
20397.9
19723
18779.5
20308.6
18241.9
18377.9
20405.4
20533.7
19927.3
20756.9
22284.1
21349.8
22615.9
22569.8
21741.1
21839.6
23086.5
19064.9
20008.3
18520.9
19414.2
24499.4
31350.5
28268.5
29937.9
31048
32228.4
20852
21802.9
21586.5
20930.4
20718.1
19194.8
20559.5
22208.3
20129.3
22201
22142.5
23243.7
21925.4
20102.6
19953.8
18327.2
21108.7
19658
18151.1
18206.7
19947.4
18960.2
21646.4
21672.9
20326.9
23048.3
20126.8
20759.4
20741.7
20385.8
20355.7
21569
20981.4
21316.5
21678.2
25125.3
22944.5
24276.7
21802.2
22140.6
21316.8
22281.7
23816.9
21149.9
22961.3
21815.7
21791.5
24131.2
23723.7
22821.7
20394.1
22874.3
23017.8
22507.4
21399.1
22342.4
21969.6
21515
21708.7
19300.3
19261.4
19144.8
20259.9
23682.9
23508.2
19017.6
22042.1
20278.4
19795.8
21574.5
19427.3
23211.4
22500.5
20106.4
21080.6
21990.3
19781.4
21330.5
22581.3
24229.9
24371.1
24170.4
22169.6
22755.1
21537.2
23303.1
23991.7
24356.3
23536.3
22412
24224.1
23141.5
23438.3
24425
24028.7
24100.9
23889.7
22589.2
24005.6
23970.7
23278.9
21550.2
24930.9
21657.6
22031.3
23047.3
22997
22336.5
25086.6
21392.1
23242.8
21832.1
21680.4
21302.8
23952.5
24612.7
24068.6
23371.1
22018.8
21341.9
21121.5
23644.9
21468.2
21712.7
25146.6
22107.8
22526
22507.5
21796.6
22327.2
21570.1
22053.9
22155
21997.9
22280.9
21411.8
23474.8
21784.6
25302.2
21069.9
20189.7
25040.2
23423.9
23450.7
23471.3
24537.2
23276.4
27077.6
23119.7
23640.2
24512.5
25296.4
21679.5
23532.8
19114.2
20299.1
19650.3
18302.5
21492.4
21677.9
17568.9
19314.1
21097.8
19103.1
21171.3
20642.5
19449.5
18482.3
19146.1
18735.3
19358.5
22260.1
21348.2
19971.8
21553.6
20472.3
20257.1
20640.3
20184.8
20192.2
22638.1
21117.8
22793
21479.6
22072.3
20632.1
24953.3
23727.9
25331.8
24018.6
20547.7
22130.1
23712.6
22289.3
23426.9
23874.5
21013.6
24386.1
21365.9
22125.1
21950.1
23265.5
20844.5
23993.1
21253.3
22184.5
21802.7
20196
20083.2
20034.7
21918.4
21289.8
20129
21101.3
19974.5
19282.1
20163.4
20291.1
21129.1
21517.6
18796.8
19511.1
20773.7
19821
20571.9
23566.2
25058.2
23781.1
24939.3
24183.3
22225.7
24980
24927.2
18510.4
20249.2
19187.3
19904.3
23549.8
21857.5
23510.3
22157.1
23299.8
21724.7
21747.7
20562
24362.5
22624.8
22735.6
22017.8
23928.1
22863
21930.7
19121.9
22116.8
26126.7
25299
24166.8
25699.3
20275.6
22852.6
23817.7
25112.8
23234.6
20796.9
25868.5
25270.2
22749.5
20187.6
24004.8
25178.3
22342.5
20445.3
24470.3
21046.3
23730.8
23415
19306.9
23122
24210
19976.9
21182.1
22828
21676.5
22951.4
20156.4
22003.2
23571.2
24511.4
20478.6
21268.3
23543.8
22758.2
18971.3
19394.8
22845.7
22529.9
23202.7
22978.1
22831.6
23436.7
22463.5
21320.7
21055.8
20695.3
23965
21562.4
23203.8
23889.4
23330.3
21773
22338.4
20855.2
22039.5
23347.1
20251.9
22286.3
22228.6
23122
22898.2
22975.7
23427.5
23224
18459.5
18860.1
20063.3
19589.5
21018.1
18131.6
19085.1
19321.7
18925.2
18453.3
18762
19498.8
19209.7
19955.2
21560.2
20372.4
20544.7
20647.3
21604.2
21160.6
20889.9
20163.8
19646.3
20928.9
20714.2
21918.8
21011
21289.4
22039.7
21074.1
22258.5
24436.8
23853.9
21938.2
22525.2
23387.4
23262.1
23270.8
21049.9
21720.5
20227.2
21636.6
24632.5
21934
25015.6
20288.3
19819.9
19251.3
18496.9
18439.5
19598.3
19260.4
20800
20389.9
18979.1
20215.7
20069.1
20646.6
20487.2
20724.6
19896.9
19619.1
19687.1
19856.4
20527.9
20688.9
22010
21752
20914
21854.4
20670.9
19837.2
21005.8
20162.1
19618.4
18510.8
22424.5
21602.5
21449.1
22059.6
20111.3
20194.7
20581.7
21725.1
22258.5
21402
21783.6
22638.3
21918.3
22274.5
20427.5
22270.2
19072.7
21373.6
22450.7
21049.7
18979.2
20374.6
22260.6
22722.9
19576.1
19215.1
21512.3
22512.7
20617.5
18898.5
19997.8
22083.9
22372.9
21909
22218.3
22167.1
23816.8
25064.7
25120.8
21584.7
23540.2
24562.5
25468.2
24499.9
20074.3
25086.5
23038.3
25198
23716.2
23240.1
25033.5
25719.9
24853.5
22331.4
24511.1
19442.3
20604
20470.8
20952.2
18755.6
23196.4
21951.5
20440.3
19063.2
20679.7
19109.4
20557.4
20586.7
20557.4
19795.9
22232.5
22340.2
21131.7
22285.5
22447.2
21452.8
21434.3
20397.8
22936.3
21743
23105.2
22548.8
22580.4
21190.4
21064.7
20313.1
21084.4
20968.7
21942.9
20168.1
20949.9
21657.4
22170.9
21043.7
21365.6
21287.5
22579.6
21650.2
20896.6
21170.7
20421.5
22188.1
19906.5
20735.5
21542.1
19622.3
21232.3
22604.9
19073.9
18761.7
20342.2
22255.1
20314.8
20503.8
20303
19645.3
20626.3
19567.1
20179.1
17628.2
22266.3
21283.1
22420.2
24097.6
24717.4
22690.5
24033
23841.7
21244.1
23175.5
22046.7
21884.7
22286.4
19539.2
19634.4
19956.6
18877.9
22266.6
23700.3
21728.6
22607.7
23178
24223.2
21083.9
23586.8
20612
20326.6
22626.4
21474.6
22634
23169.2
21142.4
21095.9
20578
16882.1
19587.9
17571.7
20012
21826.8
20734.6
23980.1
23177
18740.2
22135.4
21830.5
21451.2
22336.8
22368.5
22170.7
22271.1
21370.2
22269
20789.4
20093.2
21045.9
21602.5
21129.8
21050.9
22000.4
22567.6
22323.8
21395.6
21647.5
22197.8
23156.7
24614.2
23626.8
20423.1
22741.3
24153.1
23258.5
24747
22888
23420.8
22449
20683.8
24731
17927.1
22778.9
21792
20209.7
19390.8
20821.7
20645.9
21193.1
20561.5
19897
19587.9
20024.6
20121.6
22546.2
19326.4
18391.6
22776.4
20318.5
18336.3
19489.5
22209.3
22146
22147.7
21795
19445.5
17812.9
19504.5
18053.4
20290.4
19834.8
18316.4
18369.3
20372.6
21210.4
19195.4
22046
22586.1
21583.1
23331.3
19275.6
18994.5
20534.1
24920.2
23401.6
23088.8
21928.1
22490.5
24641.6
21297.2
23323.3
24374.1
25114.9
19875.6
20807.6
21075.7
20627.7
21017.1
20601.9
22708.9
20928.4
22139
23003.1
20767
21627
21435.4
22887.7
23541.8
23123
22914.8
23914.3
23708.6
21917.3
20610.2
22038.1
19881.5
21562.4
20341.1
22821.5
22803.9
23092.3
19911.8
18594.4
21231.8
20399.9
21744.4
19705.8
21125.7
22244.4
21891.6
22033.1
23758.7
22805.8
19067.7
25683.1
21248.2
27474.4
25761.1
21980.1
20043.9
28421.4
24948.2
24680.7
28296.3
21688.9
27235.9
28386.7
27791.6
27726.5
27204.9
28071.2
26607.8
28432.4
28932.1
27156.2
25663
25496.8
28607.4
26326.8
27051.7
28157.7
28385
28755.5
28383.1
28736.3
25824.8
27540.8
26900.5
24451.6
23395.2
20792.4
26914
19761.2
31233.9
23798
31641
34823.8
27132.1
22492.6
25315.8
18823.7
27224.7
33928.1
30816
25795.7
25061.5
23518.7
27793.4
24955.6
23248.6
24271.3
24613.4
19895.4
22707.4
26958
26425.7
23755.2
23931.6
23652.5
20552
24854.3
25184.1
20496.3
21733.7
23877.6
22124.4
28546.9
26953.3
24684.3
22997.7
20292.5
22234.8
21365.8
19248.6
19620.4
20022.7
21022.3
18121.9
21487.3
20201.4
22879.6
21962
22104.4
19228.4
20416.7
19930
20085.3
19231.3
18056.5
23829.2
18490.3
19474
19941.6
19716.5
25076.5
23531.4
21202.8
24009.6
23399.1
22891.5
21348.6
19403.2
22202.1
21178.9
19930.8
21462.9
19603.3
20336
21645.5
22191.5
22033.2
20329.2
20021.5
21598
21922.7
20681.1
20855
20002.7
18836.1
21365.6
19576.6
23000.7
23105.7
19534.5
20868.2
19544.4
21016.8
19152.3
24578.4
17964.5
23291
21269.9
20754.4
20957.6
23663
21346.7
23330.9
22253.2
22814.6
21176.6
22221.3
23069.1
23153.5
23607.1
22655.7
22056.4
24142
22424.3
22142.9
22073.4
24429.6
23075.5
20699.9
22681.8
21356.1
22884.8
22639.1
23809
22934.4
25301.5
25348.2
24875.3
21331.6
20453.7
21303.8
24016.5
22443.6
23240.3
24085.4
22565.6
25191.2
24623.8
23864
21408
21884.6
21017.6
23319.4
22964.6
19318.4
21879.5
24909.1
20903.3
24638.5
23721.3
23634.7
24704.5
23333.7
24588.1
22544.7
22614.9
24182.5
21083.3
23158.3
24233.3
24090.9
21800.4
24360.8
22725.5
23907.9
22307.9
25057.2
20893.7
23722.4
25620.2
20631.5
21663
20482.2
22883.7
21196.2
21110.8
20928.7
21004.6
20827
20594.7
20927.5
20597
22957.8
21126.1
21930.2
20965.9
21723.1
22306.7
21572.2
19419.7
21394
18605.4
21945.9
22665.4
22753.8
22105.9
20632.2
20312.4
22930.3
22560.4
19856.9
22042.9
18600
19850.8
20052.7
18421.5
21469.1
19746.5
21574.6
22811.1
19399
23291
21004.2
22659.8
17995
18536.8
17598.8
17239
19879.6
20393.9
19439.6
18202
18790
17367.5
20761.4
22340.2
19812.6
19793
22721.1
20905.2
23452.8
19235
21153.9
21432.5
20907.6
20645.9
21828.4
19437
21107.9
22907.4
18255.7
21670.2
19910.8
19214.7
18664.8
18649.7
19018.7
18220.2
21343.9
18082.2
20781.1
21423.3
23093.2
22523.6
22352.1
19672.5
23279.1
20943.6
22430.6
21603.8
22616.4
21517.9
20669.6
22047.2
21656
19490.3
23779.3
22378.8
23749.1
20886
23964.7
23439.6
23831.5
23786.3
22067.2
23142.8
20518.2
24174.9
21101.7
22710.2
21837.7
20000.4
20879.4
22934.1
21542.6
23540.2
21321.8
21654.6
21470.8
21331.2
21728.8
22542.2
20288.4
21620.4
21946.4
21739
21874
21590.8
22043.5
21729
22207.2
22697.2
22488.7
25040.7
21988.9
26211.9
24240.3
25038.4
19252.3
23315.8
26031.5
18954.7
23601.7
23696.1
25092.1
26042.8
25906.9
24812.9
23277.2
23808.7
24604.4
24382.9
22118.2
21412.3
21056.3
23869
22874.5
24090
24583
21873.6
22548.3
25245.8
24043.8
22390.8
21528.8
25314.8
23655.2
24823.2
22679.6
21941.8
23084.2
23837.7
23773
23740.9
23818.9
22362
23252.3
21880.5
22842.8
21983.3
22419.9
20983
21510.7
21477.2
23508.1
22580.4
23201.9
21902
22664.5
22226.1
22207
24919.9
24710.3
24054.3
23846.6
22330.8
22559
22648.9
21340.9
21968.7
20489.9
24197.5
22923.2
22184.2
25354.4
23990.2
25239.8
23054.9
22993.2
21907.1
20767.6
21267.8
21960.4
22391.8
19954.9
19824.4
20809.9
20591.3
20595.8
20407.5
20791.4
21007.6
21894
20805.3
19760.3
19458.8
23888.7
21880.9
21165.1
23460
20710.5
24859.4
21232.9
20134.5
20250.4
20728.6
19075.7
22115.4
21356
19991.2
19769.8
19063.3
20059.9
20039.2
19858.1
24223.2
22132
23456.7
19193.7
19145.7
19805.3
20232.5
20251.3
20508.9
21693.5
22132.5
19243.2
22076.5
20426.9
19256.3
19370.6
19352
18965
20732
20466.8
20867.2
21855.7
20803.8
21535
19985.7
21954
20977.4
20184.5
20219.6
20608.8
23429.4
21867.7
21321.3
22238.6
21749.9
22545.3
22550.3
23787.1
21630.1
22579.1
22383.7
22541.6
23160.9
22948.2
21573.3
23378.9
22595.9
23645.5
23322.9
22358.8
22444.2
22008
21642
21713.3
21384.7
21583.9
21429.3
21450.3
20780.2
20819.7
21192.8
21334.2
20714.9
20504.1
21117.8
20844.9
22122.1
22421.9
21807.5
21701.5
23096.6
22197.2
22266.6
20297.3
20033.9
19064.6
23124.3
19889.1
20798
23502.3
23408.2
21659.8
20651.7
18299.6
19539.6
20781.3
20597.5
19937.3
20988
21169.2
20265.9
21519.3
22202.7
21428
21803.2
21252.7
22369.8
23072.3
22662.6
20679.3
22613.8
24079.2
23079.5
21942.8
22342.3
23316
22018.1
23718.2
22217.4
22669
23969.7
21755.1
24093.5
22946.4
23327.4
22392.2
21990.9
22325.2
21794.9
23859.6
22684.5
23174.6
24905.8
23868
25742.7
24628.5
24078.3
25384.3
23644.5
23629.1
21456.4
25108.4
25123.3
23144.5
24388.3
23798.2
25031.8
21467.6
20224.5
21721.1
19955.7
22519.5
21416
22604.3
23155
21655.1
23110.7
22582.7
21834.6
20953.4
22496.2
22929.5
19564.6
20120.4
21497.8
21258.9
19347.8
21377.6
21603.9
23098
21259.8
20715.1
20219.9
19519.2
23315.8
19670
22254.5
20390.2
20918.1
20900.7
22443.1
18343.7
22213
22547
21290.9
19230.5
22889.5
21728.2
18850.6
18352.8
19509.1
17724.5
21317.4
21432.9
20329.7
22984.5
19967.4
21445.1
22025.7
22494.1
22264.1
21667
21856.7
21680.8
20223
20761.3
20404.6
22644.8
22712.9
18619
22625.8
20059.1
21483.9
23454.7
22013.2
23309.1
20775.6
22713.6
23737.4
21553.2
23049.8
23430.1
22388.3
22885.3
21246.7
21585.3
21020
22260.7
22500.3
21730.5
21923.7
21737.4
21297.8
21758.2
21513.7
21426.7
21587.4
22320.1
21255.9
23487.2
21096.5
21631.2
22780.7
22051.2
22140.6
22147.9
22684.5
20994.3
21380.3
20144.5
23350.6
20393.1
20961
22424.4
19817.1
21398.9
21776.3
22708.7
22469.7
24106.3
24469.3
22270.1
23763.2
22293.9
23587.8
23920.9
23360.3
22916.3
24209.4
24246.8
22152.8
22309.1
22553.5
23157.5
21333.1
22408.3
19272.5
18548.8
22408.8
21840
18020.3
22418.9
18336.8
21078.7
18256.4
20071.1
20961.9
19747.1
21271.4
23161.9
21720.7
21355.7
23340.1
23054
21181.1
24033.2
22417.4
21344.5
23261.1
21188.8
22171.7
22302.9
22899.5
21592.2
19980.7
19343.9
20491.7
23324.3
24400.3
17782.9
18355.2
18775.7
17972.1
18629.9
19257.8
19462.9
20283.2
21915.9
20673.3
19671.2
21771.5
21280.1
19366.9
19714.6
21041.1
19870.7
20107
20027.6
18989
19118
19542.4
18813.9
19486
19411.5
21353.5
19657.2
19993.5
19890.5
20525.1
19920.9
20302.3
19756
25169.8
26188.4
24884.2
22799.4
27042.4
27254.9
25292.2
23258.3
26110.5
27404.2
26718.1
25865.9
23707
24314.1
25831.7
23141.9
23728.6
22808.7
21887.5
21112.9
20367.6
24383.9
20808.2
24065.5
20798.1
19724.8
22985.7
21330.7
19607.6
21565.4
22194.4
19891.8
22025.1
20989.5
18199.3
23268.8
13201.7
22931.7
17962.1
22902.4
20675.8
22554.7
21704.3
17018.7
19831.2
15214.6
21858.2
43196.8
51578.3
51692.8
35293.1
41748.8
36179.5
33645.4
46903.3
40731.2
53323.4
25671.3
29825.8
50466.3
42445
50258
22785.1
25971.8
26155.2
25203
22986
23587.2
26038.3
23791.8
29011
25730.8
30485.2
24198.2
31756.2
27656.7
29460.9
29930.7
31139.1
30696.7
27722.5
26960.4
29653
28808
29367
31670.4
25445
27769.3
30358.2
24778.8
32772
32169.1
30618.8
27260.7
31769.8
27710.7
25943.2
26908.3
30597.5
26783.3
31785.5
29733.3
28375.8
29241.9
29087.4
28679.7
22620.6
26980.7
28036
29107.9
30206.4
28471.2
27960.7
28636.5
21445.1
26015.4
23084.2
29240.7
26343.6
26325.6
27775.7
22777.8
29606
23975.8
26497.8
23362.7
27329.8
25688.2
25541.6
26609.3
21212.3
25464.5
26280.7
23119.2
27171.5
27082.1
28369.4
27503.5
26528.5
20878.2
26882.6
22085.7
22009.7
23328.6
22525.8
21085
24463.9
23815.8
23100.7
25598.6
26392.1
23685.5
24265.9
23516.1
27934.1
27545.4
24419.8
22605.6
21598.8
27028.7
24241.2
26644.8
28020.6
26937.7
29224.8
24534.8
19533
27398.6
26811.1
21559.3
21270.9
22317.3
21609.3
20005.4
21224.3
19029.7
22743.7
23116.2
22850.7
22031.1
20519.4
21277.6
21991.8
22099.1
21898.5
23071.1
23043.1
21943.1
21516.2
21414.6
22392
20973.6
22539.7
23505.2
23351.8
22561.2
19186.7
23237.8
22444.7
19790.5
22717.9
18541
20746.1
19056.2
19163.1
19059.5
19163
12600.1
19099.8
20359.3
20784.5
20220.3
20507.5
20376
20719.9
20503.4
18955.7
22350.9
22252.3
22810.8
23591.2
23580.1
22294.3
19913.8
21667
21881.4
23537
23450
23475.1
23204.8
21702.3
21739.1
20992.3
20892
20081.1
20180.6
20683
21859.9
23824.1
24027.8
21988.3
20808.9
21770.8
20234.9
23899.4
19690
22277.8
22291.8
21252.5
21380.1
21804.2
22229.5
23516.4
22930.9
21551.7
22854.8
21321.6
20726
24093.8
22324.6
23476.7
19419.4
18844
20520.6
20108.3
24960.7
21008.8
20586.1
24891.7
24874.3
23481.2
26262.5
25882.5
22106.5
22107.4
23721.7
21206.5
21531.9
21477.2
23385.1
25748.4
24597.3
22422.4
22473.6
22612
23660
19475
18707.5
19828
19745.6
18835.5
24583.2
23853.3
23606.8
23581.1
22367
23491.1
19985.9
23894.5
22570.6
20635.6
19614.5
23863.5
22437.3
21518.6
23021.9
23646.2
20606.3
24469.9
24108.5
21253.6
22749.8
22780
22270.9
21448.1
19117.5
20426.1
21456.2
20490.8
21772
21371.5
20666.4
20464.5
21250.5
19352.3
19516.7
19920.9
20353.9
20830.3
20406
20441.2
19998.9
21855.4
21412.6
20860.8
20965.3
20623.3
21319.2
21561.6
21864.5
22542.1
21664.1
22168.6
20526.5
20951.5
21957.2
20715.4
22042.1
21024.6
22753.7
23059.4
19845
23453.5
20925.5
21516.1
21518.1
21408.2
19473.5
21837.6
21785.6
20509.4
20577.9
20822.8
21277.7
21423.2
20469.2
20633.3
20487.2
21627.3
21095.4
20364.8
20664
20807.3
21823.5
22096.1
20784.8
19327.1
21490.4
22212
21725.7
20651.6
21494.1
22097.6
21835.8
21367
21897.4
20626.3
21693.8
22122.3
22289.3
20120.6
19785.9
21287.5
20483.1
21810.8
23126.4
22877.1
21619.1
22324.1
22907.1
22987.9
21594.9
22348.6
20408.5
19323.5
19901.4
22485.2
21091.7
21706.1
20903.7
23024.4
20384.3
20820.7
20316.2
20054.6
20564.9
20739.2
19730.6
20540.3
20818.1
20873.1
20301.2
21682.5
21952
21750.5
22879.9
21942.7
22732.5
20972
21613.7
21778.3
21969.1
19846
22080.9
22544.4
20163.2
22058.4
20889.1
20566.7
21377.8
21919.8
21294.5
22150
21183.2
21614.4
21427.1
21996.6
21700.7
21601.9
21160
21741.7
22193.9
19840.8
21319
20318.5
21317.8
21939.9
22278.4
21667.3
21095.9
20224.4
20344.8
19528.7
20719.5
19250.3
21899.6
19981
20771.7
21570.1
21480.5
21043.8
21224.5
21526.1
21482.4
20579
20651.8
22765.7
23284
21742.4
21666.4
23073.6
21560.7
20571.6
22328.9
23054.1
21781.4
20136.9
23668
23346.2
23892.3
19934
23586.9
21506.3
23087.3
21694.9
21804.7
22343.7
22122.1
21695
21414.3
21500.6
22862.8
21161.1
22670.8
21706.8
21598.6
21863.4
21292.9
20089.7
22435
21535.3
20113.7
21064.5
21731.5
21087.4
19324.7
20991.4
20483.6
23368.6
19579.8
20817
19235.8
19550.4
19912.5
24022.4
21064.8
19238.1
23212.3
21776.7
20779.4
21716.1
18467
20349.4
19376.8
20511.3
18769.5
20881.5
20414.5
22888.9
20593
19684.9
21230.6
20636.3
22067.3
22344.8
19104.3
19674.5
21783.3
19457.9
22697.9
19398.6
19106.9
21982.1
20905.7
22888.1
23365.6
23675.1
23403.1
23025.7
22914.8
22069.6
22869.6
21784.6
22518.6
20832.9
23191.7
22151.7
20694.4
24280.9
21174.7
23547.3
22167.1
24157.8
21601.1
21320.3
25420.5
24446.2
22211.1
22855.8
22128.1
20498.1
21627.6
21484.5
21150.1
22642.5
19537.2
22333.3
22764.6
21692.4
21256.2
20701.3
19551.7
17991.1
23012.4
20949.4
20931.8
21066.2
21121.8
21128.2
20442.8
21854.4
20267.1
20624.2
23272.1
20980.4
23116.2
21639.1
22131.4
23117.3
20059.5
20650.4
20995.3
22877.4
22080.8
20142.6
23643.6
20550.5
19310.1
20404.5
24102.8
22508.2
19856.4
22097.7
24060.9
20902.4
21757.1
22799
22724.8
22458.3
21444.5
23463.7
21248.2
21305.7
22286.2
20937.6
22131.9
20833.1
23804.6
22458
22906.5
21259.7
20931.7
20052.4
21963.7
21869.2
19992.7
20015.2
23485.7
18616.4
22318.9
23311.2
21779.1
18078.4
19904.3
20624
23286.7
22411.9
21604.4
20234.6
21566.5
20175.4
22646
21787.2
21729.6
21524.3
20684.6
19770.1
21044
20921.7
20724.6
20077
19831.9
20758.7
20475.4
18962.4
20643.7
20796.3
22784.5
21360.7
21338.1
22827.3
20502.5
20857.5
20616.2
20629.6
21809.7
22122.4
21025.7
18797.8
17811.7
19059.6
20257.7
21383
23171.6
22758.8
20021.2
21447.9
20736.9
20587.3
20781.9
18638.8
23659.2
18972.8
18741.1
19522
19464
21772.8
23776.6
23908
23823.7
22067.5
21294.1
23191
22393
21276.2
22015.8
23299.4
21306.4
22823.5
22953.4
23848.1
23154.6
21295.3
21335.8
23073
22308.9
22775.9
21738
22274.5
21274.4
23005.1
21916.9
23058.1
22283.4
22234.1
21200.3
22345.6
22750.1
21233.1
20904.3
19404.1
22356.7
19800.3
19432
19771.4
21856.2
20169.8
18261.4
22352.4
21082.3
19059.4
21704.2
19486.5
21355.6
18980.5
21091.7
21361.4
18927.2
20934.4
20567.9
18959.4
21422
20998.1
20804.3
21416.5
21301
19435.9
19736.3
20691.6
20727.9
20853.2
19825.8
19692.8
20211.5
19383.3
20253.5
20179.1
19511.4
19582.6
19645.2
19550.2
22274.6
20047.5
21484.6
21289.7
21174.4
21982.2
21920.5
21838.5
23688
20998
19470.8
20695.8
17762.4
18210.1
19851.9
18530.3
19422.1
20068.3
22201.7
21921.5
21378.4
20471.7
21778
21317.7
22470.2
22343
22996.8
22417
19745.9
23819.3
21912.9
23238
22691.9
22870
24021
21791.7
19127.7
22599.9
20499.8
21164.6
23016.5
20878.3
21107.2
22224.1
22005
20555.3
23002.3
23250
19904.1
22055.5
20424
22634.8
23294.7
24386.1
21757.9
22446.8
23742.2
18659
21034.7
22235
19591.3
22047.8
23126.4
20321.3
22898.8
20261
20266.2
19454.9
19584.6
21145.5
24237.2
24209.1
24480.4
24851.6
23722.4
24175.5
22666.4
24838.6
24265.3
22526.4
24891.1
24301.4
23997.1
24047
23221.9
23493.5
22832.7
22285.3
20028.2
20651.8
22158.8
20877.3
21219.8