# vtk DataFile Version 3.0
Happy Go Lucky
ASCII
DATASET POLYDATA
POINTS 14290 float
-0.605372 -0.0497962 -0.696348
-0.636177 -0.0458172 -0.708581
-0.608617 -0.0329708 -0.719533
-0.632095 -0.0180743 -0.725874
-0.650741 -0.0150482 -0.701797
-0.609706 -0.0143667 -0.733497
-0.589601 -0.0207319 -0.697961
-0.593302 -0.0163338 -0.72391
-0.593119 -0.000184252 -0.740113
-0.580948 0.00226768 -0.717317
-0.660881 0.102613 -0.696826
-0.642029 0.106776 -0.728781
-0.632809 0.0587244 -0.735119
-0.615608 0.0664124 -0.754188
-0.643907 0.0785591 -0.718481
-0.59739 0.073252 -0.764768
-0.59667 0.0242511 -0.75307
-0.646414 0.029157 -0.708613
-0.636462 0.0322382 -0.728324
-0.619374 0.0394724 -0.748728
-0.642911 0.0081455 -0.717865
-0.621482 0.0084445 -0.740322
-0.597534 0.0510694 -0.760646
-0.644729 0.0510921 -0.712789
-0.6292 0.0855819 -0.742944
-0.609714 0.0916832 -0.762165
-0.575366 0.0211028 -0.737194
-0.575236 0.0292464 -0.711555
-0.573929 0.0419705 -0.755549
-0.57027 0.0473956 -0.730889
-0.572791 0.0568587 -0.706966
-0.567729 0.0628984 -0.746781
-0.577296 0.0664381 -0.765672
-0.569067 0.0742284 -0.727483
-0.573396 0.0852803 -0.702731
-0.566637 0.0861888 -0.751116
-0.584106 0.0919101 -0.771595
-0.571287 0.106347 -0.726969
-0.703505 0.19027 -0.700275
-0.622124 0.194931 -0.757714
-0.663698 0.199974 -0.742079
-0.624728 0.112682 -0.752348
-0.660273 0.176348 -0.733455
-0.644316 0.184268 -0.749811
-0.596935 0.185279 -0.758631
-0.680085 0.187174 -0.718787
-0.638335 0.129742 -0.740767
-0.654515 0.132136 -0.720248
-0.674079 0.138696 -0.697015
-0.623331 0.141072 -0.758574
-0.645294 0.155647 -0.741057
-0.598372 0.156471 -0.76901
-0.666735 0.159002 -0.717777
-0.688676 0.165214 -0.698717
-0.623341 0.16957 -0.759878
-0.598685 0.121735 -0.771279
-0.595993 0.173253 -0.703633
-0.603767 0.193632 -0.713833
-0.567994 0.115177 -0.758732
-0.577618 0.163888 -0.748084
-0.576036 0.132516 -0.714032
-0.572559 0.136723 -0.738319
-0.574372 0.14187 -0.764384
-0.590188 0.181258 -0.729241
-0.581348 0.156697 -0.719925
-0.57649 0.114342 -0.696269
-0.707279 0.213359 -0.724316
-0.597772 0.20866 -0.741746
-0.635343 0.217171 -0.754385
-0.675971 0.221467 -0.723081
-0.615485 0.222119 -0.711157
-0.652134 0.227059 -0.729344
-0.655055 0.227927 -0.701889
-0.681943 0.232039 -0.696045
-0.635669 -0.110919 -0.632158
-0.680383 -0.108644 -0.62022
-0.662207 -0.107912 -0.64177
-0.688224 -0.103048 -0.599112
-0.640811 -0.098192 -0.655801
-0.620524 -0.096066 -0.615622
-0.682834 -0.130503 -0.59726
-0.656646 -0.127389 -0.619783
-0.63122 -0.117363 -0.605289
-0.610934 -0.0793432 -0.598848
-0.684343 -0.00220482 -0.605042
-0.677777 -0.000679662 -0.625187
-0.662354 -0.00734963 -0.670007
-0.645553 -0.0808797 -0.675704
-0.672016 -0.0157103 -0.641864
-0.683784 -0.0225552 -0.600773
-0.667492 -0.0377014 -0.658563
-0.674761 -0.0398934 -0.633685
-0.680683 -0.0409063 -0.610783
-0.625515 -0.0696854 -0.689615
-0.606542 -0.0623457 -0.671248
-0.648865 -0.062067 -0.690031
-0.678456 -0.0625032 -0.622766
-0.663522 -0.0622159 -0.671626
-0.620588 -0.0908423 -0.640551
-0.67249 -0.0622689 -0.647271
-0.683761 -0.0617052 -0.598814
-0.6009 -0.0558623 -0.606186
-0.60054 -0.0510227 -0.65332
-0.609114 -0.0696245 -0.647597
-0.600501 -0.0520818 -0.631858
-0.658588 -0.0387646 -0.685597
-0.595323 -0.0380511 -0.671359
-0.677137 -0.085684 -0.634994
-0.664449 -0.0854828 -0.658174
-0.682844 -0.0842638 -0.610478
-0.620731 -0.0839165 -0.666069
-0.678509 -0.0202666 -0.619725
-0.61008 -0.0743025 -0.623265
-0.593186 -0.0316609 -0.645502
-0.587217 -0.0112116 -0.636884
-0.591558 -0.0284442 -0.616647
-0.586024 -0.00842412 -0.664113
-0.585553 0.00128646 -0.61718
-0.732809 0.104431 -0.595744
-0.714356 0.0999817 -0.613566
-0.696797 0.0920478 -0.633087
-0.700874 0.0765963 -0.61384
-0.695693 0.0398259 -0.597167
-0.672563 0.0116889 -0.643062
-0.67743 0.0406641 -0.63855
-0.664065 0.0305509 -0.666771
-0.654657 0.0675843 -0.694758
-0.683743 0.0229001 -0.615886
-0.686159 0.0673782 -0.634926
-0.66185 0.055159 -0.676654
-0.690776 0.0517622 -0.615448
-0.676245 0.0983207 -0.670004
-0.606262 0.101527 -0.598413
-0.596954 0.101501 -0.623453
-0.691601 0.107551 -0.652792
-0.681059 0.0835677 -0.653245
-0.667367 0.0775287 -0.674476
-0.653688 0.0411472 -0.69172
-0.672264 0.0592265 -0.657047
-0.653388 0.014219 -0.692711
-0.575632 0.06617 -0.682156
-0.580763 0.0103912 -0.690444
-0.584936 0.0597684 -0.613031
-0.581763 0.0544771 -0.638714
-0.579325 0.0482905 -0.662906
-0.576698 0.0388197 -0.686646
-0.586332 0.0989751 -0.649375
-0.581169 0.0224435 -0.665408
-0.581552 0.033705 -0.646027
-0.583044 0.0311835 -0.62062
-0.577671 0.0934409 -0.675915
-0.579754 0.0736823 -0.656886
-0.585691 0.079119 -0.631464
-0.583255 0.0115323 -0.641685
-0.593517 0.082873 -0.606913
-0.760194 0.158966 -0.638587
-0.740634 0.161867 -0.653413
-0.71952 0.155574 -0.662513
-0.782918 0.160558 -0.616737
-0.7113 0.171402 -0.682555
-0.696376 0.148163 -0.677722
-0.731801 0.141801 -0.638625
-0.757422 0.139403 -0.618101
-0.733737 0.177182 -0.669601
-0.779163 0.137408 -0.598334
-0.704934 0.132742 -0.655738
-0.757378 0.181046 -0.655849
-0.768126 0.18463 -0.595592
-0.77368 0.187421 -0.629968
-0.723683 0.197963 -0.684494
-0.732888 0.121806 -0.615111
-0.717059 0.198107 -0.608079
-0.711383 0.116839 -0.634009
-0.754637 0.120703 -0.597415
-0.600618 0.123208 -0.640679
-0.648639 0.160042 -0.609444
-0.607333 0.168777 -0.67933
-0.623226 0.169447 -0.655108
-0.643433 0.172857 -0.634388
-0.665941 0.178389 -0.618803
-0.624452 0.184648 -0.673476
-0.690858 0.187181 -0.609875
-0.660312 0.188428 -0.63865
-0.6338 0.138528 -0.599116
-0.603048 0.146731 -0.659939
-0.621891 0.148914 -0.629524
-0.613887 0.189878 -0.693297
-0.644937 0.191346 -0.658576
-0.680248 0.196011 -0.63129
-0.612992 0.122105 -0.612792
-0.682896 0.121814 -0.674721
-0.58724 0.120726 -0.668819
-0.587398 0.145801 -0.690869
-0.753022 0.208527 -0.606225
-0.765132 0.208721 -0.642023
-0.697461 0.210435 -0.610234
-0.754179 0.211281 -0.67365
-0.696745 0.217469 -0.645854
-0.725957 0.218427 -0.635224
-0.707501 0.220277 -0.692342
-0.717121 0.226096 -0.668174
-0.622501 0.208952 -0.674963
-0.657339 0.213984 -0.639083
-0.66169 0.219289 -0.675926
-0.689342 0.228451 -0.670894
-0.208535 -1.49239 -0.529307
-0.176464 -1.49332 -0.496586
-0.128561 -1.49413 -0.512269
-0.0333837 -1.50116 -0.513313
-0.0798228 -1.49251 -0.526064
-0.0784745 -1.50039 -0.499586
-0.398241 -1.49215 -0.500895
-0.30143 -1.49161 -0.536195
-0.338473 -1.49185 -0.500204
-0.232024 -1.49165 -0.497763
-0.267312 -1.49236 -0.500944
-0.245972 -1.49188 -0.548802
-0.12106 -1.4915 -0.550127
-0.172513 -1.4919 -0.541635
-0.0290079 -1.49211 -0.544895
0.0503685 -1.49089 -0.512562
0.0936459 -1.4904 -0.502241
0.0220485 -1.4921 -0.524067
0.140256 -1.49196 -0.503184
-0.0332739 -1.30074 -0.499309
0.0166966 -1.3388 -0.500694
0.0585603 -1.30228 -0.502029
0.00579481 -1.30854 -0.507102
-0.0949555 -1.20908 -0.504737
-0.00499538 -1.2234 -0.517765
-0.035328 -1.23378 -0.516077
-0.0696845 -1.23536 -0.501885
-0.0529085 -1.20475 -0.526717
-0.0189012 -1.1959 -0.521248
0.010321 -1.24688 -0.507703
0.0110631 -1.28362 -0.500213
0.0291404 -1.21593 -0.509394
0.0350575 -1.25565 -0.499116
0.061781 -1.26943 -0.49781
0.138583 -1.28935 -0.498281
-0.106367 -1.13287 -0.52151
-0.111393 -1.16731 -0.510714
-0.130863 -1.12606 -0.497351
0.00206319 -1.12123 -0.523289
-0.0836266 -1.18275 -0.527216
-0.0671325 -1.15275 -0.534849
-0.0630371 -1.11521 -0.532804
-0.0306656 -1.13564 -0.523724
0.078836 -1.13122 -0.516749
0.0532062 -1.15905 -0.52317
0.0263187 -1.10631 -0.515681
0.0975879 -1.18558 -0.504313
0.0477657 -1.11783 -0.515146
0.0893723 -1.10789 -0.508132
0.066618 -1.19044 -0.511389
0.0191802 -1.15282 -0.523274
0.128109 -1.1279 -0.506781
0.11446 -1.15523 -0.51299
-0.0791783 -1.06378 -0.496197
-0.0398864 -1.04035 -0.499408
-0.0233831 -1.0789 -0.513587
-0.052335 -1.07669 -0.51865
-0.0449339 -1.05963 -0.510471
-0.0133095 -1.03638 -0.496759
-0.0945977 -1.09217 -0.512476
0.0992834 -1.08388 -0.497507
0.0376017 -1.0553 -0.497522
0.0260334 -1.06508 -0.49829
0.0100663 -1.02639 -0.497697
0.0122952 -1.05164 -0.499939
0.0349863 -1.03791 -0.499007
-0.711108 -0.137986 -0.513497
-0.705101 -0.136222 -0.539852
-0.712213 -0.163473 -0.502762
-0.703679 -0.161425 -0.527681
-0.704647 -0.111888 -0.522259
-0.699708 -0.109161 -0.549866
-0.696665 -0.134854 -0.567583
-0.678359 -0.171201 -0.528259
-0.66961 -0.150733 -0.572084
-0.639816 -0.142974 -0.560591
-0.659317 -0.160027 -0.544955
-0.634002 -0.14862 -0.502156
-0.688989 -0.158704 -0.550699
-0.64747 -0.138218 -0.591268
-0.653259 -0.164366 -0.517629
-0.62091 -0.126314 -0.513336
-0.623804 -0.121715 -0.542005
-0.625416 -0.115535 -0.574114
-0.605687 -0.108034 -0.495881
-0.693865 -0.107445 -0.577465
-0.609902 -0.10234 -0.522566
-0.620054 -0.099278 -0.59367
-0.612293 -0.095749 -0.549688
-0.694193 -0.176518 -0.512796
-0.672521 -0.177065 -0.504049
-0.636572 -0.145652 -0.530661
-0.698761 -0.0348998 -0.541477
-0.706843 -0.0192982 -0.521437
-0.704191 -0.0906345 -0.50321
-0.699207 -0.0812701 -0.530531
-0.699721 -0.0130168 -0.550292
-0.703256 -0.0665727 -0.506882
-0.701006 -0.0498755 -0.523649
-0.715899 0.00429433 -0.51278
-0.612165 -0.0871462 -0.575142
-0.688203 -0.0834471 -0.586751
-0.597582 -0.0839226 -0.504145
-0.693361 -0.0832797 -0.561028
-0.599365 -0.0776685 -0.529795
-0.6008 -0.0703324 -0.555319
-0.688843 -0.0600379 -0.574286
-0.694608 -0.0574608 -0.54876
-0.601406 -0.0626067 -0.580501
-0.692456 -0.0357414 -0.56355
-0.686173 -0.0386096 -0.587976
-0.690985 -0.011229 -0.579568
-0.586094 -0.0249117 -0.542863
-0.583645 -0.00528604 -0.524668
-0.582813 -0.0102591 -0.498385
-0.592685 -0.0370723 -0.587459
-0.590828 -0.0518525 -0.53606
-0.590195 -0.0586806 -0.51055
-0.592587 -0.0444826 -0.561496
-0.585334 0.00283455 -0.575507
-0.585324 -0.0318199 -0.516932
-0.584371 0.00376975 -0.551228
-0.587121 -0.010836 -0.593113
-0.587455 -0.0185268 -0.568308
-0.799397 0.102668 -0.510484
-0.727443 0.0148954 -0.496154
-0.702042 0.0137429 -0.561212
-0.709647 0.00809788 -0.534377
-0.720684 0.0722649 -0.575036
-0.704862 0.0618055 -0.594456
[...]
POINT_DATA 14290
SCALARS scalar float
LOOKUP_TABLE default
21278.4
20090.2
20870.9
20681.5
20198.9
22022
21777.7
21973.3
22250.5
22965.1
18436.7
19473.3
23654.1
25068.3
20858.4
25037.5
23509.8
23035
23719
24205
22147.9
22839.4
25252.4
23081.4
22541.4
23478
23133.8
24272.3
22745.4
25400.4
23934.3
24610
23027
24636.9
21716.5
22834.8
21253.3
22167.6
21310
19380.9
19040.7
21506.7
21487.6
21078.5
18778.8
21296.1
20497.3
18798.8
18630.8
21054.9
21455.5
19111.7
20296.6
20631.7
21272.3
19764.1
21642
21460
19300.7
19641.6
20441.1
21104.9
17690.3
21661.6
21463.2
19362.6
22310
21405.2
21933.4
30529.6
23808.9
27822.1
31469.1
32605.5
23063.5
22159
22275.8
23073
23910.6
24915.2
18941.4
19624.2
21762
23876.8
24057.5
23446.4
19700.4
23503.6
22844.5
25400.3
23214.6
25520
26333.7
21957.9
24119.2
21770.3
26630.1
23363.9
25642.7
25508.1
25944.2
23374.9
24750.8
26112
24562.3
21019.7
22777.7
24910.9
23904
25726.4
23962.8
25282.6
25593.1
23053.9
22252.7
22664.4
21457.8
22647.1
23584.6
23087.1
22679.7
23296.1
21695
21047.2
21502.6
20627.3
21638.6
22310
22682.3
22124.5
22378.2
20768.7
23255.7
21790.9
21377.3
22382.4
21659.9
22405.4
22159.8
20985.7
22142
22270.7
23469
23316.5
22961.7
22885.3
20576.3
22295.7
23031.1
23063
20185.6
22233.5
22841.1
22391
23738
20033.4
21242.8
21606.9
18482.1
21656.9
20455.7
21244.4
21822.6
21148.3
21917.4
20798.9
18686.1
21885.4
17426
20459.3
22160.2
20680.5
21471.4
23472.2
18685.2
20153
20328.4
19638.6
20387.3
21679.9
20886.4
21869.5
21758.7
20189.6
17986.4
18141.9
21404.3
21121.5
22049.2
20315
19575.9
18440.6
19268.1
22084.3
21234.9
24344
20282.2
32009.3
27603.1
32377.2
30062.6
23967.1
24700.8
32851.9
33135.5
11918.8
18742.7
17489.8
13514.9
14191.4
17326.9
4433.83
5059.2
7702.69
11137
9598.07
5251.97
5486.91
6576.34
5712.76
8142.4
9388.28
7121.98
8261.26
9776.83
9953.97
11465.7
10428.4
9139.21
11268.1
10214.9
9480.87
9643.25
9513.21
12119.7
11031.4
11513.8
13005
13105.9
9875.62
14266.7
9217.24
16560.4
17200.3
9247.36
10304.8
17226.6
12968.8
16493.9
11308.7
21077.3
9100.02
19763.8
20823
9854
11341.3
16496.8
10653.3
21731.5
21165.2
20490.7
19850.9
19832.8
22404.4
20550.7
23029.1
23102
23847.5
22789.8
23067
22528.3
22207.8
20929.7
21802.7
21586.3
20851.3
20558.6
19194.5
22200.8
18327
18150.9
20102.4
21108.6
19953.6
18206.5
21925.3
19946.9
18959.6
20128.6
21645.6
21672.1
20326.1
23047
20125.7
22142.4
23243.5
19657.7
21565.6
20978.7
20717
20384.6
21312.4
20354.1
20739.4
21675.1
21814
24274.1
22139.1
21800.7
21148.4
21314.1
23812.6
21788.5
22278.3
22940.1
25120.4
22956.2
22500.5
22814.4
20388.6
22335.9
21511.1
21706.6
21964.7
23712.7
21394.7
24121.5
22864.6
23009.8
19292.9
22497.9
20099.4
20755
21975.4
22563.6
23199.4
19244
22034.1
20256.1
19008.8
20261.9
21571.2
19417.3
21076.3
19794.1
23664.1
23494.2
21325.3
19774.9
19136.7
23283.4
24142.8
22722.4
22158.6
23948.2
21524.8
24298.3
23483.5
24170.2
22361
24161.1
23080.8
24316.2
22580.8
23261.7
23402.2
23853.7
23951.8
23957.6
24408.8
24010.6
24091
21548.8
23035.5
21679.6
25122.4
24897.8
21931.4
23326.6
21395.4
21655.7
21825.1
25011.9
24558.8
22902.4
23237.4
21824.3
21099.1
22112.4
21784.6
24022.3
21669.8
21264.7
23951
21345.2
23643.3
21420.7
23414.4
21728.2
22458.7
22456.2
22216.4
21363.3
21741.7
22239.3
21418.4
21956.9
21991.3
21658.9
14716.5
17262.7
15760.7
16349.9
16246.1
16035.5
18441.8
17566.7
17748.4
19195.8
15920
20232.6
19115.4
14684
19329.7
13758.7
15719.4
12980.5
13530.8
14473
18675.7
18937.6
13531.6
16103.2
19702.9
14469.4
14615.7
15956.5
15112.2
13223.4
17994.8
15024.3
16872.8
14269.4
13193.1
17668
18679.7
19652.1
17472.8
18245.4
4559.78
10337.7
6569.47
6852.31
9429.89
12229.4
11433.3
8292.41
11620.2
11476.2
10163.3
10411.1
10925.9
10209.5
12248.5
8854.38
9313.2
9672.28
11599.6
11245.6
11520
12299.5
12529
10288.8
12107.5
12004.9
11566.3
11539
12533.6
11482.9
10876.6
10715.1
11118.1
11066.9
10909.6
11417.3
9946.96
10315.5
11302.9
8940.21
11465.7
10234
11270.2
8084.55
10623.5
9441.53
11002.5
11216.9
10790.6
10320.8
11598.5
11952.4
8838.85
9446.94
11062.3
11708.6
11082.9
10753.6
9499.11
8761.21
9953.53
9257.48
7661.76
9032.13
10167.6
9746.42
9631.14
12251.3
6251.99
9581.6
10275.9
8980.21
7617.59
7819.36
6490.16
12573.8
11033.4
11408.8
10012.2
11776.4
10129.5
10839.5
10769.8
9258.96
11795.7
9248.73
10637.1
9721.78
10754.2
10777.8
10847
10105.6
10096.8
10249.7
12344
9381.46
10266.2
10385.8
10392.2
10825.3
9260.08
10131.9
8787.65
7871.27
10485.9
10230.8
9473.05
6683.91
8417.1
6157.04
10464.5
12125.2
9805.06
10013.5
10117.2
11056.7
8888.03
8971.34
13031
11234.9
10199.9
12892.7
11024.8
9867.61
11449.1
12118.8
10531.1
9958.62
8083.04
12419.6
10090.9
12476.9
11344.4
9857.29
11462.4
11338.9
11518.5
11780.4
12384.8
12430.6
13505.7
13745.8
9373.94
13262
11167.8
12210.1
12299
12487.1
12449.1
13541.1
12553.1
11804.5
12676.4
12222
13065.3
12690.3
12287.9
12921
12558.1
12223
10848.1
10237.4
9118.96
10411.7
11096.3
8452.43
12158.3
12204.7
11635.1
12562.5
9346.1
11968.9
11852.8
11876.1
10540.7
11882.2
9509.91
11301.1
11477.7
11937.7
11099.4
10739.3
10580.8
12143.1
11790.3
11390.8
11206.8
11230.1
10663.4
10934.1
10950.7
11053.1
23034.9
16957.4
15124.7
19496.7
12956.5
11341.1
18643.7
24036.8
24299.8
9544.64
12200.1
18869.5
12189.6
14790
10641.2
10422.5
11127.8
10315.7
11848.1
21294.4
10898.2
10973.2
22197.2
12965.5
9274.59
11173.3
20523.6
10636.7
21268.8
9763.9
12045.4
13679.8
25472.6
22934.9
17561.4
13477
14656.4
12571.7
18536.4
18137.8
18867.8
21133.7
20489
9303.48
8954.06
9761.77
8785.65
10227.2
18436.7
17456
19671.5
8326.08
8686.68
15161.7
16940.1
9934.42
11811.4
13049.5
18242.9
22805.3
23095.5
21626.9
22314.4
25067.7
18568
20366.1
21858.3
25306.1
24295.7
21077.6
20986.6
20956.8
22290.5
23764.4
23161
21273.1
20347.5
23576.3
24707.2
19747.8
21620.1
22333.3
19908.7
21727.6
22863.8
22491.9
20974.5
22565
22221.3
22203.1
23099
22022.7
22710
20285.9
22404.5
22007.7
22815.4
20548.6
22763.6
19453.8
19939.2
20143.2
20996
23032.9
21743.8
23171.4
19142
20929.3
19137.2
22417.4
26106.9
25214.2
25272.4
24367.7
22814.4
25072.3
25938.1
25126.8
22542.9
26322.1
25593.2
26417.1
24428.9
26617.6
25321.5
25606.7
23810
22309.8
25636.5
20785.9
23092.4
24946.1
19664.8
22283.2
21324.4
19288.3
20471.5
20970.8
18893.3
22150.6
19706
20309.5
21273.2
21356.7
23300.5
20819.5
21490.5
23062.5
22634.7
21972.2
21461.6
21174
21205.4
21669.7
20653.6
21391.6
22698.8
21116.6
22345.7
23114.3
21968.1
23261.9
22739.3
22807.3
21388.4
20544.7
21627.3
22277.7
22757.7
21178.8
21492
21190.4
21426.4
21215.7
22097.2
20362
21770.4
20308.1
22438.2
20658.7
21675.2
21686.3
21477
20495.1
21180.6
22513.2
20506.1
20688.7
20294.1
19711.5
19742
20406.9
21413.6
19787
21774.7
20852.5
20756.6
22863.6
19366
20515.5
19094.1
21861.8
22409.9
19747.3
22549.9
23451.9
25576.9
24218.9
24259.8
22244.1
22813.5
19657.5
24237.7
21390.5
22013.9
22383.6
25508
20070.4
21501.9
24205.7
24936.8
20675.9
24185.4
23350
20822.7
22674.2
20454.6
22781.7
21381.5
22551.3
21982.2
24403.2
23813
21714.1
22837.5
23785.7
23224.8
22568.9
24133.9
22843.4
21025
21756.7
22681.8
20688.3
21232.4
21183
17715.4
19693.3
17679.5
16984
19000.6
20734.6
23980.1
23177
21826.8
22135
22368.2
22170.7
20789.3
22270.7
21369.9
21602.2
21050.2
20012
21451.1
18740.1
20093
21045.8
22268.7
21129.4
21830.2
22336.6
23420.7
23156.7
22323.3
24730.9
22888
22448.9
24746.9
20683.7
21647.2
22197.4
23258.4
24153
21394.9
22741.2
24613.9
23626.8
22567.5
20423.1
19390.4
20209.1
19896.2
19586.1
20120.3
22546
18390.8
19326
20024
22000.2
20318.1
18335.4
19487.8
20561.1
21190.9
22208.4
20821
22143.6
20644.1
18052.2
22146.5
19444.8
21794.2
21791.4
17926.8
22777.7
18315.8
19833.5
20287.6
20371
18367
17809.7
19503.5
22585.1
19191.6
22044.7
21209.3
23329.9
21582
24640.2
23399.5
19873.4
25113.7
21073
24372.8
21295.5
21925.7
23321.8
24918.7
20804.8
20622.7
21012.5
20527.8
18985.6
22774.7
23086.7
22489.5
22794.8
20760.8
23074.3
22990.6
19878.1
22099
20920.3
21612.2
22817.9
22033.7
20603.8
20331.7
21560.1
23535.6
22879.4
23110.4
22908.4
23904.9
21424.3
21896
23697.3
19905
18589.5
20385
21726
21099.5
19687.5
20593.7
19265
21221.6
22228.2
21845.1
21998.7
22682.2
16663.9
14381.6
17582.7
15243.2
14851.9
13477.2
17234.8
14613.3
17216.5
16728.7
18138.8
16934
15937.7
19512.4
18117.2
18608.8
18666.4
17875.8
14570.6
17795.1
17760.5
18036.1
16482.8
16329.5
17797
15449.1
15965.2
16444.5
16271.1
14654
15282.8
14907.2
13632.9
14430
15510.8
14801.3
14806
15709.6
14549.7
14569.7
15038
15774.8
17041.6
19471.5
16787
18447.2
18686.1
17146.3
17496.1
19497.2
13791.1
20219.7
20918.3
17140.3
7103.37
8180.82
9919.23
9298.22
11618.6
10648.1
11403
11820.8
10417.8
12007.1
12549.4
12330.7
12075
9809.08
11739.6
12168.3
10289
12637.1
9411.02
12296.2
12581.4
8969.85
11668.1
6608.93
10150.1
12830.6
10919.6
11919.2
10217.2
11080.4
11865.3
12733.9
11914.2
7575.11
8958.71
9450.27
9427.91
7832.18
9094.82
7838.83
11509.7
10907.3
9146.96
10739.7
9630.5
8961.65
9380.39
10485.5
8049.85
7872.63
12641.8
11542.6
12205
12561.4
10819
12155.8
10827.9
12957.3
11637.6
12138.3
7195.76
12285.6
12219.7
10305.9
10598.4
13327.2
12253.5
9993.47
11483.3
10942.1
11318.5
11141.3
11063.5
11792.8
9364.56
10199.5
10547.2
8915.23
9512.13
8375.88
10969.9
11413.8
9183.61
9877.52
11858.3
8058.99
5958.51
7232.87
11358.2
12172.3
9403.36
8734.16
11239.2
10597.2
12748.9
12498.4
10565.7
13071.7
11984.1
12061.7
14245
12344.4
10837.2
12877
14353.8
13362.5
10051.2
12442.5
13595.5
11777
9311.69
10353.2
10647.2
11503.5
11222.2
9248.26
10837.4
10010.8
10518.5
11987.5
12050.3
12757
11318.5
9417.12
11664
11030.3
13377.7
11743.9
11481.7
11334.2
12056.8
13347.9
11911.4
12178.4
10369.9
12907.2
11687.3
12018.2
11664.2
11518.9
10791.4
11248.7
13016.4
13100.9
10442
10575.7
12455.9
12851.6
10522.9
10458.2
10674.5
11744
10137.7
9548.33
10658.3
11295.2
11893.8
11171.2
10254.3
10161.7
7910.67
9047.72
10128.7
9019.77
7645.96
10203.2
8843.83
11284
11267.8
12402.1
10502.8
12234.7
10902.1
10950.6
13277.4
13597
10366.3
11215.4
13479.5
11199.4
12917.3
8902.59
9369.6
11597.7
9475.98
12504.9
12458.6
11637.6
9665.41
12542.7
11938.3
11226.8
11063.1
12443.9
11467.7
9153.31
8091.78
12239.4
13145.1
9106.63
13706.2
13818.6
11549.2
12218.4
10822.4
11311.6
9838.49
13215.4
9804.52
11133.2
9947.01
12151.5
11120.4
12116.1
10498.1
10893
10623.3
10145.9
9389.24
10675.7
11549.6
11210
11213
10736.2
12383.2
11595.3
10759.7
12832.6
11611.7
13324.5
11253.7
11892.3
11351.2
11018.7
11335.9
11672.5
10938.6
13640.6
11561.9
15191.1
10991
10243.4
15011.3
11239.6
10533.9
11367.5
12498.4
10525.4
11235.1
13821.9
10948.9
9613.11
9606.28
9477.42
11381
10042.9
10131.5
10327.4
12157.8
11083.4
11642.1
17887.4
20515
8915.19
10531.7
9279.73
12478.2
18813.7
13890.7
13268.8
20104.3
18139.8
13764.6
10664.5
14555.9
22744.7
14111.7
14252
11001.3
13299.8
12878.9
12222.1
12510.9
12952.5
14019
12843.1
19865.4
18393.2
15514.2
11058.7
17354.5
11635.9
10604
18512.7
11896
19808.4
10047.5
17498.2
20760.7
12825.3
14962.6
14022.5
18720.2
14604.7
12048.9
19767.8
11637.3
11222.6
10155.9
17987.9
12606.8
19322.8
17228.9
13964.4
21414
12342.2
9445.46
22016.9
21675.7
21861.4
20669.5
22407.7
20951.7
21872
23607.4
22129.7
23063.6
22592.9
21530.2
21882.5
20611
21794.2
23029.2
21243.5
23106.8
21728.2
20236.2
21462.7
22202.1
23832.2
22786.7
22857.5
22640.2
22219
21005
19928.5
23265.4
23060.8
23723.2
24545.7
24949.6
22440.6
23053.3
23692.6
21248.4
22514.2
22298.8
22339.9
21916.9
22474.8
21628.9
22470.9
21403.5
22647.1
20822
21281.6
21974.9
21964.5
21950.3
21965.9
19951.1
20533.2
20451.6
22352.3
21849
23307.6
22324.6
22722.7
23386.8
20912
20173.9
19053
23881.5
21770.8
21953
22320.9
22431.1
23573.1
21777.7
21246.4
20036.5
21099.6
21349.8
23316.5
20904.6
23231.8
19211.7
23884
19704.7
20860.1
19969.9
20470.5
20711
22763.1
20789.7
22683.2
22392.7
22177.8
23983
22666.7
24305.6
22179.6
23925.5
23086.8
22970.2
21938.2
22514.1
22423.2
22455.3
22948.9
23297.8
23444
21935.9
22318.7
23442.6
25606.6
23825.2
25910.7
23258.8
25119.3
24234.4
23846.6
24096
25269
25406.2
23237.9
22746
22814.4
24893.2
23421.5
24161.2
21485.6
24728.8
21813.4
25357.2
21813.3
21474
20280.4
20882.7
22538.3
21448.8
20143.4
22668.1
19644.6
23249.2
21730.1
19383.6
21410.4
20030.6
23159.8
21923
21035.1
22668.3
23011.5
22574.5
22279.9
20934.1
20915.9
23366.5
22280.1
22606.4
21356
19307
21789.6
20447.4
21341.6
20785.2
20300.4
22494.1
18444.7
19565.3
22938.1
21639.4
23161.7
20033.3
18431.2
19602.6
21492.7
20389
21367
23027
21485.6
22053.4
22524.2
22332.4
21731.8
21927.3
21750.5
20243.5
17798.4
22103.2
22721
22833.4
18702.3
23368
23509.3
22677.8
23784
21600.2
23121.1
20149.5
21550.6
22795.1
23487.6
22456.1
20845.1
23207.4
21824.1
22375.7
21331.3
21820.6
22576.2
21997.9
21177.1
21650.7
21426.8
21587.5
23487.2
22320.1
21255.9
20961.1
22780.7
22140.7
22051.3
21631.3
22424.4
21096.6
22148
20393.2
20994.3
21380.4
20144.6
23360.2
22916.3
21398.7
24209.4
24469.2
22469.7
22708.7
22293.8
22270
22152.8
23920.9
23587.8
23763.2
21758.1
19817
21776.3
21513.7
24246.8
24106.3
22684.5
23350.6
21333
22553.5
23157.4
22309.1
22408.3
21840
19272.5
21078.7
22418.9
22408.8
19747.1
18256.2
18336.7
18548.7
20071.1
20961.9
21188.5
23339.9
23161.8
22171.6
21181.1
22417.1
23260.9
21720.6
21355.3
21271.2
21592.1
19980.5
19343.6
21344.2
22302.8
22899.3
23053.8
24033
23323.9
24400
17782.8
18629.6
19257.7
19670.7
19462.5
20282.6
21915.6
20672.2
21770.8
21279
18019.9
17971.9
18775.6
18354.9
19366.3
19888.8
19918.5
20298.9
19750.9
20491.5
21040.9
18813.4
19656.8
19714.3
19869.7
18988.2
19117.4
19541.9
20106.5
20025.9
20522.8
19485.2
19410.2
21352.8
19992.4
22798
27041.9
27253.8
25290.9
23256
26110
27403.3
26717
25865.3
23138.1
23727.7
22806.8
21883.6
21111.4
20364.4
23706.5
24312
25830.6
25169.5
26188
24883.4
24333.4
20772.5
19724.6
20801.6
24013
20702.9
22940
15134.5
21737
12434
19488.9
21357.6
19827.7
17015.9
22867.9
22150.6
19846.3
23257.8
17962
22859.3
20653.8
22527.1
21662.9
20910.2
18195.3
21885.9
42949.7
51369.3
51620.5
35377.3
46790.8
40706.4
53274.7
50448.9
42347.2
25581.9
35965.7
33429.3
46092.9
49978.6
41450.5
29873.6
16721.7
15621.6
15750.3
17067.6
16908.4
16030.1
17870.4
17826.8
18185.1
16470
17846.5
14044
18403.2
19013.2
17821.2
18778.3
18253.2
20352.5
19954
19964.9
19507.4
19991
18490
18210.3
20375.8
18460.9
18553.6
18531.5
18888.3
20108.7
17948.2
17565.7
18743.6
19172.6
17809.3
17660.2
18848.8
16466.7
15055.4
16475.3
16059.2
15260.5
16185.3
16194.5
14929.2
15820
15260.1
15637.1
14186.3
14781
15594.4
14637.6
14747.4
16184.8
15922.1
15570.8
14935.9
15327.1
15878.6
16056.1
17653.8
17847.2
16867
15527.7
11730.7
14834.6
15417
16876.4
14011.1
15122.5
14455.4
4819.63
6857.23
5831.89
10490.3
9643.42
7139.21
11672.9
12854.9
11761.7
11649.9
8998.3
13437.9
12336.5
13779.2
13210.9
13132.7
13291.9
13829.7
8639.91
13053.1
11131.1
11432.2
11950.8
11587.8
11099.4
11840.6
10869.6
6791.36
9463.61
11424
11636.9
11227.1
10890.3
11120.9
10000.4
11541.9
9287.39
12087.9
8780.79
9555.18
7336.24
8942.18
12756
13757.5
8697.73
13161.8
10889.8
11810.5
10779.5
10563.1
11722.5
7880.19
7598.27
9271.76
10289.5
7045.53
12909.8
4094.73
6573.71
9032.47
9730.19
7803.84
8973.43
11390.9
8340.83
7546.24
10798.4
10265.4
10657.8
11752.1
10271.4
8601.5
10197.9
7299.13
8904.75
9656.3
8104.34
8875.4
12033.9
11425.1
8847.11
9586.84
10871.1
12726.8
10469.9
10599.6
10837.7
10565.5
11169.9
11145.2
8123.94
11272.9
12943.1
11349
11710.7
13153.2
11866.2
12183.3
11024.4
11755.5
11662.2
12287.4
11314.4
11842.8
10139.6
11523.3
11822.2
12392.2
11884.6
12912.2
12058
12135.6
11812
10631.8
12946.9
12159.1
10669
10084
13457
11484.9
12547.6
10658.2
11955.1
8105.92
8509.5
11035.3
11369.7
10885.3
12783.1
10947.8
11442
9440.13
11026.6
11218.3
10915.2
8542.75
11491.1
11105.3
11324.4
8375.21
10781.8
10362.4
11591
11233.7
11555.1
11729.8
12182.3
12084.5
10984.9
10920.6
11073
11270.2
13344.1
12413.3
12578
11827.1
11058.6
10494.8
11464.5
13368.6
12018.9
13443.6
13225.1
10257.9
11910.4
9643.76
11293.9
12279.2
10832.6
10954.5
11529.6
11238.7
11979.4
9270.02
10648.1
11144.7
10190.8
11018.4
13341.9
11632.2
11585.2
10683.1
11452.6
8839.12
10380.1
11472.1
11515.4
9002.85
12505.1
10050.6
11529.2
10536.1
11629.1
10880.1
12567.3
9768.61
11219.1
9738.46
8053.11
9597.44
9089.83
8142.14
12699.1
11427
9148.71
10141.6
12100.7
9422.37
10504.3
10138.6
12081.1
10433.8
11285.2
9484.53
10603.7
10381.4
10387.7
9193.01
10759.3
12121.5
12594.7
11862
9179.83
11176.7
12571.2
11552.4
10268.3
11424
11081
12180.8
11024.2
10461.5
10352.7
10862.4
11616.4
13596.1
11768.6
11851.7
13215.1
9579.91
12209
9858.47
11320.4
9989.54
12397.9
9791.44
12550.2
10736.9
11720.7
10810
11219.2
10641.8
11863.7
11511.2
10260.8
11613.3
10915.6
11089
12018.7
8449.42
22374.7
8702.26
11701
20684.9
13794.1
13821.3
18121.8
24515.6
9451.01
15365
15963.6
8436.09
8924.53
19132.1
14218.3
12231.4
15921.7
13358.4
12330.7
12667.1
24131.9
15577.5
13616.3
11525
11217.5
12332.4
10737.1
21295.8
18904.1
21423.3
12682.2
7991.89
10552.2
12140.9
23446.5
9676.63
15468.5
9760.36
12186.3
12921.3
15874.4
19290.5
21267
12003.6
12567
11933.8
12849.8
10047.5
19679.7
12262.5
11648.2
8921.21
23676.7
13894.2
20762
12025
18635.2
20068.2
11683.2
22203.1
23436.6
20565.1
22155.1
20052.9
22126.3
23143.1
20254.3
23508.4
24555.9
23325.6
21881.1
23641.3
26142.6
23675.9
23794.8
24203.3
23332.2
20565.8
21118.3
21731.7
21810.9
23731.5
23112.4
22185.9
23040.3
22285.1
21624
21893.9
21525.1
22891.6
21750.6
21936.7
23404.7
22058.4
22627
22580.3
24527.6
22884.4
21107.3
22981.6
22376
21349.4
22989
20621.8
21244.9
19441.3
19948.3
20127.1
21438.1
22175.4
20048
20603.8
20563.1
23766.2
22271.6
20634.6
20579.7
21301.8
21800.3
23553
21432.9
21215.8
21989.4
19251.2
20518.3
23599.4
19502.8
21797.7
23081.6
21993.7
24003.7
24347.8
23616.6
19761.6
22688.6
18391.5
21482.9
22677.1
19360.2
23096.9
22066.7
23344
22996.2
23198.6
22750
22037.8
20076.5
22686
23054
19502.3
23141.9
19267.6
20940.4
21580.3
19810.8
22171.3
23245.6
21853.6
23242.1
20652.2
22088.1
19898.4
23376.6
23555.5
22033.9
23616.5
23202.2
20926.8
23924.2
24451
22879.1
21236.7
22232.9
21519.8
23192.7
23466.3
24230.2
21029.2
21437.9
24708.2
21177.9
21592.5
22756.9
22311.2
23507.9
21810.3
22157.7
20892.3
22607.3
25720.5
23685.7
23276.4
22739
25431.5
27241.5
24422
23994.5
21752.5
24027.1
21919
22903.7
18107.2
19572.1
20740.1
21293.3
19854.7
21343.4
22909.8
21865
21695.8
23279.4
21752.6
21458.9
23209.5
22182.7
23275.6
21312.6
21170.9
21307
20787.2
20341.3
22108.1
21031.6
20526.4
21150.7
23378.7
22757.5
20269.9
19381.6
23847.9
22806.1
19917.2
20447.8
22235.3
22220
20222.6
22996.1
20703.1
21147.4
24464
20738.8
20890.6
22757.9
20978.7
23923.8
21599.9
22854
22870.9
24214.5
23583.4
21412.3
21376.8
23095.5
21454.5
21084.3
22379.6
21961.3
22454.7
23005
20951.9
18743.2
20101.8
21894.4
19847.4
18274.3
20325.7
23460.6
22433.1
21930.8
22413.6
23516.4
20253
18374.5
21843.4
20340.9
22581.3
20726
21883.9
20977.6
21177.3
21056.5
21033.7
21019.4
21943.4
20419.3
19958
21995.7
20218.8
20113.9
21791.3
19241.4
22064.6
21597.9
21489.4
21067.4
20902.3
21292.2
20913.8
20828
21717.5
22032.1
21034.9
20866.9
22976.8
23022.9
21132.6
17977.3
19152.1
18856.2
21824.5
22182.1
20315.9
22848.9
21466.1
23186.9
23706.7
20063
20605.2
20801.7
18717.6
20829.7
21513.5
19079.6
18830.2
19560.2
23005.3
23366.4
21380.9
23862.5
22113.3
23139.3
22094.7
23950.1
21402.8
21361.4
23307.7
22914.6
21488.7
21124.3
23918.9
24184.1
21340.4
22466
23222.2
21983.3
22407.1
22844.4
23100.4
21293
22387.6
22360.7
22321.8
21850.5
21378.4
21298.6
22398.1
23104.3
22812
22463.6
19116.4
19860.6
22425.3
19860.6
21143.2
19547.9
19980.2
21431.8
20230.1
21935.6
18333.9
19493.8
19059.6
21811.8
19507.2
19527
20616.7
20690.9
19039.2
19774.8
21400.2
21462.6
21030.9
20872
21476.9
21359
18982
20970.1
21517.7
21276.7
20890.3
19873.9
20706.8
20225.7
19739.6
20771.5
18860.3
19400.5
20275.3
20229.6
19678.5
19592
19566.9
20782
20421.2
19551.2
19658.6
21887.6
20069.4
22309.6
21950
21210.1
21513.7
22917.4
21319.1
22014.9
19457.6
20730.3
22224.7
21057.6
20119
19513.9
19886.8
17771.3
18259.4
18616.3
21393
21474.6
23287.6
22000.7
22774.3
22520.5
23497.2
22451
21983.5
19240.7
21476.2
22584.7
21845.3
21856.4
19777.3
23853.9
23116.7
20544.9
22918.8
20623
23477.4
23102.5
21251.3
22201.7
23189.5
22714.8
20510.1
24451.8
22339.2