# vtk DataFile Version 3.0
Happy Go Lucky
ASCII
DATASET POLYDATA
POINTS 14290 float
-0.605372 0.244204 -0.696348
-0.636177 0.248183 -0.708581
-0.608617 0.26103 -0.719533
-0.632095 0.275926 -0.725874
-0.650741 0.278952 -0.701797
-0.609706 0.279633 -0.733497
-0.589601 0.273268 -0.697961
-0.593302 0.277666 -0.72391
-0.593119 0.293816 -0.740113
-0.580948 0.296268 -0.717317
-0.636462 0.326238 -0.728324
-0.619374 0.333472 -0.748728
-0.642911 0.302145 -0.717865
-0.621482 0.302444 -0.740322
-0.597534 0.345069 -0.760646
-0.644729 0.345092 -0.712789
-0.6292 0.379581 -0.742944
-0.609714 0.385682 -0.762165
-0.660881 0.396612 -0.696826
-0.642029 0.400775 -0.728781
-0.632809 0.352724 -0.735119
-0.615608 0.360412 -0.754188
-0.643907 0.372558 -0.718481
-0.59739 0.367251 -0.764768
-0.59667 0.318251 -0.75307
-0.646414 0.323157 -0.708613
-0.575366 0.315103 -0.737194
-0.575236 0.323246 -0.711555
-0.573929 0.33597 -0.755549
-0.57027 0.341395 -0.730889
-0.572791 0.350858 -0.706966
-0.567729 0.356898 -0.746781
-0.577296 0.360437 -0.765672
-0.569067 0.368228 -0.727483
-0.573396 0.37928 -0.702731
-0.566637 0.380188 -0.751116
-0.584106 0.385909 -0.771595
-0.571287 0.400347 -0.726969
-0.703505 0.484268 -0.700275
-0.666735 0.453 -0.717777
-0.688676 0.459213 -0.698717
-0.623341 0.463569 -0.759878
-0.598685 0.415734 -0.771279
-0.595993 0.467252 -0.703633
-0.603767 0.48763 -0.713833
-0.622124 0.488929 -0.757714
-0.663698 0.493972 -0.742079
-0.624728 0.40668 -0.752348
-0.660273 0.470346 -0.733455
-0.644316 0.478266 -0.749811
-0.596935 0.479277 -0.758631
-0.680085 0.481172 -0.718787
-0.638335 0.423741 -0.740767
-0.654515 0.426135 -0.720248
-0.674079 0.432695 -0.697015
-0.623331 0.43507 -0.758574
-0.645294 0.449645 -0.741057
-0.598372 0.450469 -0.76901
-0.567994 0.409176 -0.758732
-0.577618 0.457886 -0.748084
-0.576036 0.426515 -0.714032
-0.572559 0.430722 -0.738319
-0.574372 0.435868 -0.764384
-0.590188 0.475256 -0.729241
-0.581348 0.450696 -0.719925
-0.57649 0.408342 -0.696269
-0.707279 0.507356 -0.724315
-0.597772 0.502658 -0.741746
-0.635343 0.511169 -0.754385
-0.675971 0.515464 -0.723081
-0.615485 0.516117 -0.711157
-0.652134 0.521056 -0.729344
-0.655055 0.521925 -0.701889
-0.681943 0.526037 -0.696045
-0.688224 0.190952 -0.599112
-0.640811 0.195809 -0.655801
-0.620524 0.197935 -0.615622
-0.682834 0.163498 -0.59726
-0.656646 0.166612 -0.619783
-0.63122 0.176639 -0.605289
-0.635669 0.183082 -0.632158
-0.680383 0.185357 -0.62022
-0.662207 0.186089 -0.64177
-0.683784 0.271444 -0.600773
-0.667492 0.256299 -0.658563
-0.674761 0.254107 -0.633685
-0.680683 0.253094 -0.610783
-0.625515 0.224315 -0.689615
-0.606542 0.231655 -0.671248
-0.648865 0.231933 -0.690031
-0.678456 0.231498 -0.622766
-0.663522 0.231785 -0.671626
-0.620588 0.203158 -0.640551
-0.67249 0.231732 -0.647271
-0.683761 0.232296 -0.598814
-0.6009 0.238138 -0.606186
-0.60054 0.242978 -0.65332
-0.609114 0.224376 -0.647597
-0.600501 0.241919 -0.631858
-0.658588 0.255236 -0.685597
-0.595323 0.25595 -0.671359
-0.677137 0.208317 -0.634994
-0.664449 0.208518 -0.658174
-0.682844 0.209737 -0.610478
-0.620731 0.210084 -0.666069
-0.678509 0.273732 -0.619725
-0.61008 0.219698 -0.623265
-0.610934 0.214658 -0.598848
-0.684343 0.291795 -0.605042
-0.677777 0.29332 -0.625187
-0.662354 0.28665 -0.670007
-0.645553 0.213121 -0.675704
-0.672016 0.27829 -0.641864
-0.593186 0.26234 -0.645502
-0.587217 0.282789 -0.636884
-0.591558 0.265556 -0.616647
-0.586024 0.285576 -0.664113
-0.585553 0.295286 -0.61718
-0.732809 0.39843 -0.595744
-0.714356 0.393984 -0.613566
-0.696797 0.38605 -0.633087
-0.700874 0.370595 -0.61384
-0.695693 0.333826 -0.597167
-0.672563 0.30569 -0.643062
-0.67743 0.334666 -0.63855
-0.664065 0.324551 -0.666771
-0.654657 0.361584 -0.694758
-0.683743 0.316901 -0.615886
-0.686159 0.361377 -0.634926
-0.66185 0.349158 -0.676654
-0.690776 0.345762 -0.615448
-0.676245 0.39232 -0.670004
-0.606262 0.395526 -0.598413
-0.596954 0.3955 -0.623453
-0.691601 0.40155 -0.652792
-0.681059 0.377567 -0.653245
-0.667367 0.371528 -0.674476
-0.653688 0.335147 -0.69172
-0.672264 0.353226 -0.657047
-0.653388 0.308219 -0.692711
-0.584936 0.353767 -0.613031
-0.581763 0.348476 -0.638714
-0.579325 0.342291 -0.662906
-0.576698 0.332819 -0.686646
-0.586332 0.392974 -0.649375
-0.581169 0.316443 -0.665408
-0.581552 0.327706 -0.646027
-0.583044 0.325183 -0.62062
-0.577671 0.38744 -0.675915
-0.579754 0.367681 -0.656886
-0.585691 0.373117 -0.631464
-0.583255 0.305532 -0.641685
-0.593517 0.376872 -0.606913
-0.575632 0.36017 -0.682156
-0.580763 0.304391 -0.690444
-0.760194 0.452964 -0.638587
-0.740634 0.455865 -0.653413
-0.71952 0.449572 -0.662513
-0.782918 0.454556 -0.616737
-0.7113 0.4654 -0.682555
-0.696376 0.442162 -0.677722
-0.731801 0.435799 -0.638625
-0.757422 0.433402 -0.618101
-0.733737 0.47118 -0.669601
-0.779163 0.431407 -0.598334
-0.704934 0.426741 -0.655738
-0.757378 0.475044 -0.655849
-0.768126 0.478628 -0.595592
-0.77368 0.481419 -0.629968
-0.723683 0.491961 -0.684494
-0.732888 0.415805 -0.615111
-0.717059 0.492105 -0.608079
-0.711383 0.410838 -0.634009
-0.754637 0.414702 -0.597415
-0.600618 0.417209 -0.640679
-0.648639 0.45404 -0.609444
-0.607333 0.462775 -0.67933
-0.623226 0.463445 -0.655108
-0.643433 0.466855 -0.634388
-0.665941 0.472387 -0.618803
-0.624452 0.478646 -0.673476
-0.690858 0.481178 -0.609875
-0.660312 0.482426 -0.63865
-0.6338 0.432528 -0.599116
-0.603048 0.440729 -0.659939
-0.621891 0.442913 -0.629524
-0.613887 0.483876 -0.693297
-0.644937 0.485343 -0.658576
-0.680248 0.490009 -0.63129
-0.612992 0.416106 -0.612792
-0.682896 0.415812 -0.674721
-0.58724 0.414725 -0.668819
-0.587398 0.439799 -0.690869
-0.753022 0.502525 -0.606225
-0.765132 0.502719 -0.642023
-0.697461 0.504432 -0.610234
-0.754179 0.505279 -0.67365
-0.696745 0.511467 -0.645854
-0.725957 0.512425 -0.635224
-0.707501 0.514275 -0.692342
-0.717121 0.520094 -0.668174
-0.622501 0.50295 -0.674963
-0.657339 0.507982 -0.639083
-0.66169 0.513287 -0.675926
-0.689342 0.522449 -0.670894
-0.208535 -1.19838 -0.529307
-0.176464 -1.19931 -0.496586
-0.128561 -1.20012 -0.512269
-0.0333837 -1.20716 -0.513313
-0.0798228 -1.19851 -0.526064
-0.0784745 -1.20638 -0.499586
-0.398241 -1.19814 -0.500895
-0.30143 -1.19761 -0.536195
-0.338473 -1.19784 -0.500204
-0.232024 -1.19764 -0.497763
-0.267312 -1.19835 -0.500944
-0.245972 -1.19787 -0.548802
-0.12106 -1.1975 -0.550127
-0.172513 -1.1979 -0.541635
-0.0290079 -1.1981 -0.544895
0.0936459 -1.1964 -0.502241
0.0220485 -1.19809 -0.524067
0.0503685 -1.19689 -0.512562
0.140256 -1.19796 -0.503184
-0.696665 0.159147 -0.567583
-0.711108 0.156014 -0.513497
-0.705101 0.157779 -0.539852
-0.712213 0.130527 -0.502762
-0.703679 0.132576 -0.527681
-0.704647 0.182112 -0.522259
-0.699708 0.18484 -0.549866
-0.609902 0.191662 -0.522566
-0.620054 0.194724 -0.59367
-0.612293 0.198252 -0.549688
-0.694193 0.117482 -0.512796
-0.672521 0.116936 -0.504049
-0.636572 0.148349 -0.530661
-0.678359 0.1228 -0.528259
-0.66961 0.143268 -0.572084
-0.639816 0.151028 -0.560591
-0.659317 0.133974 -0.544955
-0.634002 0.145382 -0.502156
-0.688989 0.135297 -0.550699
-0.64747 0.155783 -0.591268
-0.653259 0.129635 -0.517629
-0.62091 0.167687 -0.513336
-0.623804 0.172286 -0.542005
-0.625416 0.178467 -0.574114
-0.605687 0.185967 -0.495881
-0.693865 0.186555 -0.577465
-0.704191 0.203366 -0.50321
-0.699207 0.21273 -0.530531
-0.699721 0.280984 -0.550292
-0.703256 0.227428 -0.506882
-0.701006 0.244125 -0.523649
-0.715899 0.298294 -0.51278
-0.698761 0.259101 -0.541477
-0.706843 0.274702 -0.521437
-0.612165 0.206855 -0.575142
-0.688203 0.210554 -0.586751
-0.597582 0.210078 -0.504145
-0.693361 0.210721 -0.561028
-0.599365 0.216333 -0.529795
-0.6008 0.223669 -0.555319
-0.688843 0.233963 -0.574286
-0.694608 0.236538 -0.54876
-0.601406 0.231394 -0.580501
-0.692456 0.258259 -0.56355
-0.686173 0.255391 -0.587976
-0.690985 0.282771 -0.579568
-0.585334 0.296836 -0.575507
-0.585324 0.262182 -0.516932
-0.583645 0.288714 -0.524668
-0.582813 0.28374 -0.498385
-0.584371 0.297771 -0.551228
-0.587121 0.283165 -0.593113
-0.587455 0.275475 -0.568308
-0.586094 0.269089 -0.542863
-0.592685 0.256928 -0.587459
-0.590828 0.242149 -0.53606
-0.590195 0.235321 -0.51055
-0.592587 0.249518 -0.561496
-0.799397 0.396667 -0.510484
-0.720684 0.366264 -0.575036
-0.704862 0.355805 -0.594456
-0.731949 0.384713 -0.58054
-0.728608 0.35574 -0.551333
-0.768893 0.391671 -0.559368
-0.762124 0.350493 -0.509659
-0.736619 0.344339 -0.525605
-0.707454 0.337816 -0.57245
-0.741886 0.330731 -0.501705
-0.716183 0.328802 -0.543271
-0.722976 0.319747 -0.51831
-0.789983 0.388284 -0.53817
-0.716822 0.378844 -0.594876
-0.750754 0.396984 -0.578702
-0.74261 0.378457 -0.562778
-0.786245 0.369282 -0.515234
-0.759213 0.368665 -0.53728
-0.727443 0.308895 -0.496154
-0.702042 0.307742 -0.561212
-0.709647 0.302099 -0.534377
-0.613012 0.392025 -0.573913
-0.635573 0.400154 -0.534915
-0.602387 0.369019 -0.562838
-0.602873 0.35096 -0.516339
-0.596448 0.348378 -0.541677
-0.618471 0.371045 -0.510218
-0.59539 0.331192 -0.499098
-0.609838 0.368928 -0.534419
-0.693383 0.312047 -0.588463
-0.601128 0.379171 -0.586245
-0.62348 0.3839 -0.527644
-0.618622 0.387265 -0.54899
-0.635938 0.390567 -0.510143
-0.585267 0.335359 -0.592431
-0.589258 0.343598 -0.5669
-0.591709 0.360266 -0.588046
-0.591272 0.329615 -0.523772
-0.586921 0.325182 -0.547232
-0.584929 0.318229 -0.571191
-0.585304 0.310324 -0.530931
-0.586231 0.308998 -0.509648
-0.584726 0.309155 -0.594905
-0.79529 0.415932 -0.529777
-0.769462 0.46756 -0.57488
-0.728304 0.468859 -0.565512
-0.774988 0.411221 -0.579034
-0.78496 0.416823 -0.508781
-0.738318 0.434862 -0.49803
-0.736344 0.483407 -0.588808
-0.707559 0.474931 -0.588185
-0.751924 0.474777 -0.575334
-0.765021 0.426697 -0.500848
-0.710333 0.432579 -0.501373
-0.776316 0.432739 -0.523447
-0.793941 0.433637 -0.573435
-0.788636 0.435838 -0.546147
-0.698467 0.438511 -0.52671
-0.752283 0.443007 -0.519576
-0.72492 0.445221 -0.520879
-0.766253 0.449664 -0.540606
-0.779167 0.453925 -0.562189
-0.712307 0.453359 -0.545063
[...]
POINT_DATA 14290
SCALARS scalar float
LOOKUP_TABLE default
21278.5
20090.3
20871
20681.7
20199.1
22022.2
21777.9
21973.5
22250.7
22965.3
23719.2
24205.2
22148.1
22839.6
25252.5
23081.6
22541.6
23478.1
18436.9
19473.5
23654.3
25068.5
20858.6
25037.6
23510
23035.2
23134
24272.5
22745.6
25400.6
23934.5
24610.1
23027.1
24637.1
21716.6
22835
21253.4
22167.8
21310.1
20296.9
20632
21272.6
19764.3
21642.3
21460.2
19381.1
19040.8
21506.9
21487.8
21078.6
18779
21296.2
20497.5
18799.1
18631
21055.2
21455.8
19111.9
19300.9
19641.8
20441.4
21105.2
17690.5
21661.9
21463.5
19362.8
22310.2
21405.3
21933.5
30529.6
23808.9
27822.1
31469
32605.5
23073
23910.6
24915.3
18941.4
19624.2
21762
23063.5
22159
22275.8
25400.5
23214.7
25520.2
26334.1
21957.9
24119.3
21770.4
26630.4
23364
25642.8
25508.3
25944.5
23375.1
24750.9
26112
24562.5
21019.8
22777.9
24911.1
23904
25726.5
23962.8
25282.8
25593.2
23877
24057.5
23446.4
19700.5
23503.6
22844.6
23054.1
22252.9
22664.6
21458
22647.4
23584.9
23087.2
22679.7
23296.2
21695.2
21047.1
21502.9
20627.6
21638.8
22309.9
22682.4
22124.7
22378.4
20768.9
23255.8
21791
21377.6
22382.5
21660.1
22405.7
22160.1
20985.9
23469.3
23316.8
22962
22885.4
20576.4
22295.9
23031.5
23063.4
20185.8
22233.7
22841.4
22391.3
23738.2
22142.2
22270.9
20033.6
21243
21607.3
18482.3
21657.1
20456
21244.8
21822.9
21148.5
21917.6
20799.4
18686.3
21885.6
17426.2
20459.4
22160.7
20680.5
21471.9
23472.5
18685.2
20153.3
20328.6
19638.8
20387.5
21680.1
20886.6
21869.5
21758.8
20189.8
17986.7
18142.2
21404.5
21121.6
22049.2
20315
19576.2
18440.8
19268.4
22084.4
21235
24344
20282.3
32009.3
27603.1
32377.3
30062.6
23967.3
24700.9
32851.9
33135.4
11918.7
18739.3
17482.5
13505.7
14183.9
17307
4433.87
5059.27
7702.7
11131.3
9595.37
5252
5486.87
6576.35
5710.84
9363.74
7120.62
8139.99
8253.2
19194.5
22208
20929.8
21802.8
21586.4
20851.4
20558.7
20326.2
23047.2
20125.8
22142.4
23243.6
19657.8
22200.9
18327.1
18150.9
20102.5
21108.7
19953.7
18206.5
21925.3
19947
18959.7
20128.6
21645.7
21672.1
20717
20384.7
21312.5
20354.1
20739.5
21675.3
21565.6
20978.8
21814.2
24274.3
22139.2
21800.8
21148.5
21314.3
23812.8
21788.5
22278.4
22940.2
25120.7
22956.3
23713
21394.9
22814.5
20388.7
24121.7
22864.9
23010
22500.6
22336
21511.2
21706.7
21964.8
19293
21975.6
22563.7
23199.6
19244.2
22034.2
20256.2
19008.9
20262.1
21571.4
19417.4
21076.5
19794.2
23664.3
23494.4
21325.5
19775.1
19136.8
22498.1
20099.6
20755.2
24161.5
23081.2
24316.7
23283.7
24143
22722.8
22158.8
23948.7
21524.8
24298.7
23484
24171
22361.3
23402.5
23854
23952.1
23957.7
24408.9
24010.8
24091.1
22581
23262.1
21549
24559
22902.4
23237.6
21824.3
21099.2
22112.5
21784.7
24022.5
21670
21265
23951.1
21345.4
23643.6
21420.9
23035.7
21679.8
25122.6
24898
21931.5
23326.7
21395.5
21655.9
21825.3
25012.1
23414.8
21728.6
22459
22456.4
22216.6
21363.7
21742.1
22239.5
21418.7
21957.2
21992
21659.1
14716
15758.9
16343.7
17255.6
17724.2
19161.7
16239.2
16024.3
18427.1
17537.6
20212.2
19076.5
14668.4
19325.1
13745.7
15913.3
15706.6
12949.9
13524.4
14454.8
19640.4
18661.4
18919.2
13527
16089
14443.8
14606.8
15929.8
15098.8
13208.9
17943
14997.6
16837.4
14258.9
13176.7
19597.3
17446.7
17618.8
18634.7
18224.6
6569.51
6852.36
4559.83
10336.3
11532.7
12126.8
9428.46
13033.8
12905.9
8292.32
12175
18652.6
12238.3
13850.8
11419.8
19140.9
12749.3
10972.5
17881.8
13719.6
12055.8
14379.1
19048.8
12976.3
20294.6
22346.1
16149.3
20167.1
12099.3
10899.2
20570.6
13197.7
11836.5
11411.4
17085.4
11559.4
11438
16708.2
10874.2
19344.1
15141.7
12331.1
17145.7
20425.3
11157.8
12947
9433.29
12963.1
11572.9
12014.4
18999.6
11662.8
11228.3
13123.8
18231.4
17684.7
12738.5
11842.9
7641.82
14745.9
12570.2
12166.1
6248.02
11269.6
19344.9
17022.9
6476.11
8969.56
18109.5
7611.71
20857.7
22429.1
22597.8
20197.5
22734.5
20287.8
20167.1
23125.2
22815.7
21651.9
23527.8
21841.5
20738.4
24768.1
20523.9
21321.8
22454.5
22901.9
22518.9
22611.8
22761.8
23857.7
24134
25615.6
20995.7
25106.2
20644
23087
22905.3
24265.6
23661.6
22370.8
24639.1
23792.9
20207.2
22218.7
24245.8
23267.9
21032.9
20568.4
22300.4
21981.6
20793.4
21317.6
20276.4
19383.9
21729.8
20203.5
20637.3
20280.7
22149.9
21593.3
19825.8
20669
21278.3
22467.6
22385.6
17997.7
20048.5
19705
17684.1
24269.4
19541
23988
20743.5
22837.1
21903
22197.7
25107
18732.6
25285.4
25184.4
22232.4
24680.3
23942.5
25023.7
25040.8
25459.9
24552.7
22934
20561.1
23632.2
22243.3
20382.8
20763.9
20016.2
19292.9
21943.5
22034.3
24074.1
22588.6
21776.8
22060.5
24027.2
23006.5
23281.3
23385.5
21787.5
26389.2
25243.8
26228.7
23025.1
22217
23002.8
20244.9
24216.6
24185.1
26075.9
24517.6
25658.2
25329.4
24697.6
25523.4
23241.1
20857.6
20421.5
22074.4
19348
25702.1
23096.3
21332.4
23230.4
24260.9
20087.1
22300.3
23925
20167.8
22325.3
21469.9
20557.9
23557.8
22446.8
24516.9
23636.3
19536.5
21398.6
20525.9
21423.7
22901.4
23246.4
23248.1
20572.1
19186.6
19489.5
23455.7
22498.6
21119.4
22895
21302.9
23675.6
22580.8
23869
24835.3
21817.5
22712.3
23090.3
20918.6
23711.8
23282.4
20941.8
23224.2
23018.4
23221.2
25009.9
22982.4
20375.3
21721.1
22162.5
24121.8
22385.4
23422.5
22391.4
21834.3
22275.8
23392.5
23952.3
23472
20014.6
19648.5
18514.5
18935.3
19615.3
19396.9
18735.2
18199.9
19186.5
18992.6
18519.8
20148.8
21033.5
18819.1
19286.4
20496.1
20985.8
21950.4
21599.5
21683.9
20730.5
20616.7
21233
19714.5
20248.5
20817.7
21028.3
22669.3
21798.9
22100.1
21813.1
21134.7
24645.9
23348.6
21390.6
23361
23486
22034.7
24495.2
25030.9
21164.9
23908.3
22334.6
20343.7
20342.4
19649.2
18534.3
19061.5
19333.9
20288.8
20687.6
20439.6
20832.4
20567
19901.8
18531.5
20118
22141.5
20001
20797.6
19307.6
19952.7
19712.8
19654.8
20560
18542.9
20135.6
22443.6
21468.5
20200.7
20708.4
20708.9
21790.6
21906.4
20965.6
19888.7
22066.2
21655.2
19656.3
21037.9
22304.8
22287
20469.3
22297
20618.6
21392.6
21771.7
21939.8
21435.4
22669.1
22470.5
21078.2
21806.6
20264.2
19128.7
21541
19227.6
19599.2
22235.8
20647.9
22751
21080.1
22209.2
19041
20418.4
22102.1
22535.6
18958.2
22460
21994.5
22302.9
20030.4
25155.8
24553.1
24542.5
25158
23844.9
23583.4
24641.5
25231.7
25490.4
23305.7
20119.6
21632.4
25052.6
23753.5
23060.8
22359.7
24869.8
25740.4
21976.6
19486.4
20463.9
20517.8
19099.3
20594.3
20980.9
19151
21985.5
18817.9
19826.7
20710.4
20581.2
20659.6
23209
20689.6
22374.4
22492.1
21495.3
21148
22336.2
22950.2
21758.2
23118.1
22562
22597.4
21205
20409.1
21447.5
22076.5
22179.3
21054.8
21375.9
21074.1
21300.7
21095.9
20978.6
21954.6
22588.4
20182.9
21665.9
19935.4
22202.7
20443.6
21198.4
20327.2
20966.2
20355.6
18795.5
22271.9
20332.5
20520
20189.4
19580.1
19655
20314.8
21245.8
19638.4
21562.4
20746.1
20638.1
22626.5
19109.8
21265.7
24129.1
24752.4
22298.1
19646.4
22432.7
23198.1
25110.7
23872.3
22063.6
22706.4
19551.9
24047.8
21293.4
21897.8
22278.2
19967.7
23612.5
21504.2
22651.7
23709.4
23193.2
20633
22624.3
20341.4
22642.3
21114.9
22291
21751.5
18891.8
24240.7
23176.6
22254
20906.3
21658.2
21151
21104.1
20587.8
17638.2
19597.9
17583.7
16894.8
20734.6
23980.1
23177
21826.8
22170.7
20789.4
22270.8
21370.1
21602.2
21050.2
20012
21451.2
18740.1
20093.1
21045.9
22268.7
21129.4
21830.2
22336.6
22135.1
22368.3
23420.7
23156.7
22323.5
24731
22888
22449
24746.9
20683.8
21647.3
22197.6
23258.5
24153
21395.1
22741.2
24614
23626.8
22567.6
20423.1
19390.5
20209.2
20318.1
18335.4
19487.8
20561.2
21191
22208.5
20821.1
22143.7
20644.2
19896.3
19586.2
20120.3
22545.9
18390.7
19326
20024
22000.1
18052.3
22146.5
19444.9
21794.2
21791.5
17926.9
22777.8
18315.9
19833.5
20287.7
20371
18367.1
17809.7
19503.5
22585.2
19191.7
22044.9
21209.4
23330.1
21582.1
24372.9
21295.6
21925.8
23321.9
24918.8
20804.8
20622.8
21012.6
20527.8
18985.7
22774.9
23086.8
22489.6
24640.3
23399.7
19873.5
25113.8
21073.1
23074.6
22990.9
19878.2
22099.2
20920.3
21612.5
22818
22033.7
20603.9
20331.9
21560.2
23535.7
22879.6
23110.6
22908.7
23905.1
21424.4
21896.2
23697.8
22795
20760.9
19905.1
18589.6
20593.8
19265.2
21221.8
20385
21726.2
21099.5
19687.6
22228.3
21845.3
21998.9
22682.4
16657.6
14367.4
17563.1
15233.5
14778.1
13441.8
17227.3
14595.3
17212.6
16727.3
18137.9
16919.8
15923.7
18092.2
18589.8
18651.5
19468.8
16466.8
16321
17782.3
17856.9
14565.5
17783.7
17743.5
17998.5
16250
15439.6
15962.5
16424.2
14636.6
15265.4
14887.3
13616.2
14399.6
15498.6
14790.8
14798.9
15698
14538.4
14546.4
15023.1
15753.2
17016.3
19387.9
16744.7
18430.4
18665
17119.2
17427.8
17126.1
19465.4
13802.8
20204.7
20894.4
7103.4
8180.66
9918.83
9298.03
13405.1
12694.3
14405.5
10589.8
17719.5
11803.5
10415.4
12765.3
12436.4
17488.8
17363.7
20190.3
14937.8
18361.1
17702.7
18776.6
14499.8
8964.95
11912.2
6628.23
12446.7
13383.4
20677.9
23426
22743.6
11810
13447.1
10497.6
11429.1
20416.3
11414.6
10056.3
18506.2
9720.23
10856.7
15180.4
9832.34
19167
9980.53
11356
11410.9
18889.4
11649.9
13041.4
15975.2
23186.1
23448.5
14687.7
12012.5
22012.1
22117.2
12667.1
12453.4
10783.6
13346.6
10567.1
10751.2
11167.5
10404.8
16599.8
12512.5
13725.5
22221.3
12865
21960.2
24703.1
13084.8
15029.9
11060.8
14690.5
9822.69
11751.5
14994.8
11521.7
22093.9
19199.7
18858.4
11077
15352.1
7208.55
12545.9
23935
22778.9
25408.4
25039.5
25198.5
25838.4
23020.1
24333
20646
24551.3
23211.1
23543.2
20140.5
22450.7
23307.4
22914
24272.3
21540.2
22741.1
23104.1
22424.8
22097.8
26040.5
20602.4
23219.5
23759.7
23407.9
24274.4
27986.7
23777.3
21907.2
21016.5
24269.2
23381.3
20592.9
25999.2
22140.6
22003.9
23377.1
24193.6
23512.7
24543.4
23555.8
21589.4
21881.5
23185.5
24634.3
21443
22899.3
24377
21921.5
19220.6
19884.4
21736.4
23531.4
24671.5
23312
24074.8
24616.7
23746.1
25601
25434.4
23033.5
23771.4
20165.5
19169.4
21439.8
20975.9
21964.4
20906.6
23442.3
25008.5
25870.7
22591.1
19895.7
17783.8
23466.4
18696.5
18400.6
20675
23484
24997.3
23029
23401
21586.5
20475.8
20057.8
25307.6
20849.8
19913.8
20824
22078.7
23935.7
22002.2
22392.5
23863.1
22174.4
21994.8
22294.1
21737.6
22238.9
23842.5
21980.2
21581
21296.7
20743.2
22693.2
22167.8
23692.8
24985.8
19424.2
20437.2
25280
20496.6
22353.9
24120.8
21899.8
19948.3
26986.2
26817.2
26996.5
25711.1
24187.3
25683.7
26111.1
25944.6
25222.8
24164.6
22138.2
24457
20383.4
22057.2
20984.4
22776.6
24621.4
23122.9
22483.9
21485.9
21093.5
24460.8
22469
24193.8
25359.2
22558
21643.4
21922.8
24180
23134.9
24051.9
23788
24049.4
22581.5
23447
24291.8
24962.5
22833.2
24103.2
22945.4
22167.6
25098.9
21960.8
23215.4
21953.1
22776.3
22762
21835.6
22524.6
21974.2
22545.5
22351.2
21013.5
21460.7
22859.7
23530.9
22054.1
22138.1
22203.7
23047.5
22415.1
22176.5
24344.3
22717.1
25037.1
23314.2
25333.4
24237.1
25489.5
23076.7
24118.9
24778.9
23593.7
22338.1
23272.1
20499.1
22774.6
25206.3
21420.7
22002.2
21278.9
22096.6
22548.6
21888.4
20778.4
19639.8
20490.4
20837.6
21050
20853.3
20070.7
19881.1
20634.4
20847.6
23986.7
21979.3
19932.5
21305.3
20846.1
21285.6
23593.9
20351.9
20800.4
19165.4
19060.3
19842.9
20169
20028.5
22206.8
21476.7
22259.4
22236.5
21800.1
19930.2
20329.9
20320.7
20628.6
24334.2
23927.1
23608.6
20133.5
19326
19247.1
20124.9
19242.9
19856.9
20513.1
19417.1
22198.7
19335.2
20792.6
19437.6
19051.1
20417
20562.2
20288.2
21574.7
20038
21993
20997.5
20877.7
20206.7
20623.7
21904.5
20916.2
21889.6
22266.8
22580.5
21367.7
22573
21794.1
21924.2
23450.6
22635.5
21630.3
22624.5
22418.5
22560.1
23425.7
23807
21656.6
23181.6
22980
23366.3
23684.7
21240.7
21427.7
21622.8
21480.1
21197
22161
20760.3
21369.1
22484.1
22453.3
22049.7
20845.1
20557
21685.3
21753.2
21492.1
20836.7
20891
20365.9
21853.4
21761.6
22313.8
22229.7
23126.9
20049.2
21543.5
21818.3
22216.2
22383.2
23426.3
21666.8
21179.3
20790.7
19944.1
20997
21260.6
23138
20806.9
23088.4
19079.2
23522.4
19555.3
20665.8
19895.7
20281.8
20612.2
22670.9
20691.7
22621.4
24088.8
23739.1
22962.6
22694.4
21779.3
22404.5
22237.6
21810.6
23872.8
22339.6
23329.2
22397.5
23340.7
21986.6
22707.2
22355.5
23986.9
22007.4
24114.2
22035.8
24416
21493
25145.9
25409.4
23666.8
25762.8
23183.7
24927.5
24094.9
23651.9
23889.4
25126
25059.5
24653.2
23171.7
23830
21486.8
21731.5
21432.1
20230
22521
21418.8
20122.6
22610.7
19571.9
23163.9
21662.3
21499.7
21260.4
19351.3
21381.1
19962.6
23113.2
21842.8
20960
22589.6
22936.8
22501.9
18851.4
22257.1
19670.7
20919.6
20902.1
23320.7
22219.9
22552.7
21297.2
19238
21734
20395.5
21268.1
20721.7
20226.8
22447.9
18353.3
19524.4
22894.3
21607.7
23105.1
17732
19974.8
18360.8
19518.4
21439.1
20336.4
21322.8
22988.5
21449
22027.9
22496.5
22271.9
21674.5
21865
21688.9
20225.1
20406.4
22889
20783.3
22023.1
22653
22726.4
18626.9
23315
23460.6
22631.5
23742.4
21558
23058.1
20068.4
21491.3
22722.8
23436.5
22395.9
23093.4
21740.6
22272.6
21256.5
21746.3
22508.1
21932.6
21036.6
21592.9
21309.8
23487.2
22320.1
21255.9
21426.7
21587.4
22780.7
22140.6
22051.2
21631.3
22424.4
21096.6
22147.9
20393.1
20994.3
21380.3
20144.5
20961
22916.2
21398.6
24209.4
24469.1
22469.7
22708.6
22293.7
22270
22152.7
23920.9
23587.8
23763.2
21758.1
19816.9
21776.2
21513.7
24246.8
24106.3
23360.3
23157.5
22309.1
22408.3
22684.5
23350.6
21333.1
22553.5
18548.7
20071.1
20961.8
21840
19272.5
21078.7
22418.8
22408.7
19747.1
18256.3
18336.7
23339.8
23161.7
22171.6
21180.9
22417.1
23260.9
21720.6
21355.3
21271.3
21592.1
19980.6
19343.7
21344.2
22302.7
22899.2
23053.7
24032.9
21188.4
23323.9
24400
18775.6
18354.9
17782.8
18629.6
19257.7
19670.7
19462.5
20282.7
21915.6
20672.3
21770.9
21279
18020
17971.9
19366.4
19888.8
19918.6
20299
19751
20491.5
21040.9
18813.5
19656.8
19714.4
19869.8
18988.3
19117.4
19542
20106.6
20026
20522.9
19485.3
19410.3
21352.9
19992.5
21111.4
20364.5
23706.5
24312.1
25830.7
25169.5
26188
24883.5
22798
27042
27253.8
25290.9
23256.1
26110.1
27403.4
26717.1
25865.4
23138.4
23727.8
22806.9
21883.7
20801.7
24013.1
24333.6
20772.7
19724.7
22940.2
20702.8
22859.6
20654
22527.3
21663.2
20910.4
18195.5
21886.1
15134.6
21737.2
12434.1
19489
21357.6
19827.9
17016.1
22868.2
22150.9
19846.6
23258
17962.1
42949.2
51368.9
51620
46790.4
40706
53274.1
50448.5
42346.7
25581.8
35965.4
33429.1
46092.4
49978.7
41450.1
29873.4
35377
16720
17065.1
15597.8
15743.9
16861.6
15998.8
17848.7
17810.8
18178.7
16431.5
17843
14038.4
18400.9
19008.5
17815.7
18774.4
18252
20336.6
19949.3
19958.3
19503.8
19977.1
20319.2
18435.3
18532.7
18521.8
18873.5
20095.9
18478.7
18204.3
17580.3
18834.1
17937.5
17555.9
18735.1
19163.6
17807.2
16413.7
15044.5
16461.3
16034.8
15249.5
16176.5
16179.7
14926.6
15806.7
15210.6
15597.2
14172.1
14745.8
15560.5
14614.4
14738.4
16136.9
15874.5
15501.7
14908
16037
17625.5
17673.3
16829.2
15299.6
15866.6
15509.3
11697.9
14815.8
15399.5
16863.5
13947.6
15073.3
14384.3
4819.66
6857.3
9643.4
7139.27
12001.3
5831.98
10490
13867.6
15197.4
13743.3
13208.9
16384.2
21938.4
11645.6
8998.37
17052.3
12454
14856.8
13333.4
18096.8
11475.8
23022.4
10721.3
15551.8
21875.9
10456.3
24437.2
6627.51
23059.5
12240.3
9610.92
12082.1
11578.6
12626.1
11283.1
8901.16
12042.1
22382.5
10539.5
17487
8935.29
9400.11
15649.9
11013.5
11710.2
21676.3
17991.8
10089.5
16941.5
9086.51
18382.5
18657.3
17054.8
6863.03
14157.5
12934.5
7760.47
21742
24026.5
12642.3
10721.2
19388.9
14724.4
16943.9
23541.9
12033.4
16690.7
8990.72
12642.1
9819.48
8370.09
15620.3
18665.3
11933
22554.4
11063.2
11349.6
13009.6
11686.7
12376.2
8106.1
11270.2
17011.6
12543.8
24498.1
10479.2
21764.2
14210.6
21931.4
21174.5
20697
21900.6
21794.4
21966.2
23237.4
22065.7
25422.4
24002.8
22428.5
24182.6
23628.4
20308.6
22351.2
21613.5
25773.2
21517
24166.7
21915.4
19785.4
22309.3
23585.4
19901.7
22024.4
22516.9
21322
25089.4
19441
22132.2
19707.2
29482.3
28449.1
26997.1
20286.7
22429.1
24345.1
19747.6
21411.1
21095.2
26635.7
24210.2
21293.6
24231
25964.4
27321.9
25398.8
21003.4
21006.9
21428.9
19593.7
19570.2
21418.1
20986.3
20302.7
20507.5
22249.2
21794.7
24533.8
23163.5
21717.3
21869.9
21598.9
22587.1
20720.3
22483.4
25161.9
23877.8
23675.8
21278
20991.7
22911.4
21132.3
21609.5
22901.2
24664.6
25616.9
22322.8
24488.4
20195.6
22373.7
25058
22050.9
24884.9
20940.2
20516.9
21610.1
24098.7
20791.1
20915.5
20657.7
21650.7
22477.1
23574.9
22864.7
19233.3
19825.8
20609.1
22617.9
22980.1
26034.7
22311.7
20891.2
21246.3
22576.5
22424.8
20776.7
21353.2
22602
20931.4
22233.4
21445.8
22397.4
23713.6
23898.4
24998.8
22854.7
24819.7
24453.4
22640
23983.1
25184.5
23817.5
24926.2
23998.8
23479.3
22981.2
21169.3
22221.8
20989.5
23570.2
24779.1
22783.2
20987.5
21679.2
21931.2
21583.5
21544.2
21683.1
21488.2
21223.5
20991.3
20637.1
21140.2
20548.1
20828.7
21786.8
21273.1
22015.8
21220.4
21884.3
20396.5
21963.3
22365.9
21368.2
21819.8
21896.1
21595.3
22363.8
22241.4
20712.4
20814.2
20833.8
22271
20754.7
19339.8
21092.3
19950.6
21845.6
22532.7
21428.9
20238.9
20724.8
22396.5
19917.4
21896.8
20764.8
23027.6
22365
22951
21654.7
22910.3
23164.2
21645.4
23219.8
20028
20473.1
19426.4
21744.1
22539.5
19939.7
23074.8
21128.5
22392.4
20946.5
20093.5
20364.7
20855.2
20364
20500.9
20780.3
19787.9
20584.2
20962.4
20619
20869.7
19888.6
22285.4
22584.9
21955.8
22846.1
21089.1
22925.2
21738.3
21778.9
21849.8
21990.2
21662.7
22023.4
19690.6
21866.7
21310.5
21317.6
21428.3
20694.2
21701
21060.7
21954
22319.1
21706.4
22256.8
20498.6
21437.8
22049.8
22029.4
21346.7
22181.7
19939.7
21766
21423.8
22000.6
21465.3
21729.1
21948.8
20054.3
20444.2
19348.2
19642.5
20791.7
20839.3
21217.7
21571
21363.6
22832.3
21695.4
20720.8
20641.6
21551
21585.5
21097.2
23301.6
19954.5
23609.5
23918.9
23365.5
22359.2
21655.7
21810.4
23080.2
23682.5
23087.9
20165.8
20591.7
21757.1
21585.2
21684.5
21633.4
21726.8
22699.1
23099.4
21445.2
21525.2
21306.9
22879
21722.9
21731.7
22144.8
21842.1
21892.8
22382.1
21181.8
19636.9
20848.3
19282.6
21550.6
21005.2
20512.2
23394.1
20151.7
21091
21760.1
21113.6
19348.7
19579.8
22457.8
19930.8
21806.6
20560.3
19274.8
23237.5
20470.4
20836.5
20230.6
18826.3
20910.7
20379.8
21097.3
22910.5
19411.7
18513.5
21743.5
24041.9
19499.6
22113.6
22394.5
19434.9
19121.6
20609.4
21258.3
19712.6
21818.9
22738.9
19703.6
20670.8
22135.2
22919
21815
23712.3
23404.4
23463.1
22096.4
22922.3
20963
22014.8
22556.5
23083.2
22966.2
24206.3
25468.9
23569.2
24311.4
21201.5
22203.5
23214.5
21345.7
21636
20805
22152.4
20543.5
24505.6
22275.7
20862.2
22877.2
22218.5
18002.8
19554.9
20711.1
22345.5
21261.6
19550.9
21162.4
22773.5
21497.3
21712.1
22653.5
23032.8
21520.3
20971.4
23124.5
22134.3
23126.5
21137.9
20992.1
21139.2
20636.6
20283.7
21871.9
20943.1
20456
21073.4
23279.2
21644.8
20103.3
19332.9
23657.7
19866.4
20086.9
22107.3
22094.3
20155
22886.4
20658.6
21008
24121.5
20562.7
20421.9
22524
20946.5
22294.1
21791
22155.8
22814.9
20844.9
22733.4
20944.9
23819
21463.6
22487.5
22488.7
23478
21263.1
21314.4
22924.5
21276.8
18633.1
20003
21792.1
18098.3
19147.7
20083.3
23328.5
22330.1
21877.1
20029
19911.6
21989.2
23489.3
18308.5
23307.4
22428.2
21625.4
20250.6
21802.3
20197
19849.3
20095.9
19799.2
21586.1
18996.2
21754.1
20500.6
21552.6
20718.8
21059.5
20936.7
20747.4
20791.4
21493.3
21650.2
20872
20531.6
22800.7
22842.8
21381.3
21352.8
20821.6
20636.9
20658.6
20662.6
18803.6
21811.3
22126.7
21032.7
17820.7
19066.5
20026.2
20589.4
20744
18645.2
20785.5
21455.1
18980.9
18749.4
19470.4
20261.1
22764.3
21390.6
23174.9
23663.6
24068.9
21301.2
22401.1
23161.6
22957.9
23305.5
21302.3
23826.6
22071.6
23078.9
22023.6
23911.8
21314.8
21284.3
23201.3
22830.9
21348.4
20920.4
23855.4
22290.9
22242.7
21748.6
21283.1
21209.7
22351.3
23062.5
22755.6
21923.2
22317.7
22783.6
23015.1
21238.8
22285.9
19493.2
21362.7
20176.2
21864.2
18270.4
19413.2
18988.5
21715.4
19439.6
22365.8
19065.4
19779.8
22364
19806.2
21089.6
21001.1
20811.1
21422.8
21306.7
18933.3
20938
19445.9
20572.9
20630.9
18967.7
19740.4
21365.4
21425.6
20857.3
19830.7
20692.9
20212.7
19698.2
20732.8
20185.3
19385
20255.6
19516.2
19646.6
19583.6
19552.1
20763.7
21844.8
20050
22278.8
21923.9
21178.7
21488
21293.2
21986.1
19425.9
20699.7
22204.4
21005.2
20073.9
19475.7
19856
17763.6
18217.3
18540.3
21786.5
19750.1
23822.7
23008
20481.3
22875.4
21332.8
23243.4
21921.6
22702.5
22429.6
22354.8
21929.7
19141.1
21388.9
22482.2
21798.1
20433.1
24392.5
22234.8
20567.9
22658.9
20891.5
22012.9
19919.2
22608.2
23259.6
21119.2
20511.8
23311.6
23012.3
21175.2
22070.4