# vtk DataFile Version 3.0
Happy Go Lucky
ASCII
DATASET POLYDATA
POINTS 14290 float
-0.605372 0.0482039 -0.696348
-0.636177 0.0521828 -0.708581
-0.608617 0.0650292 -0.719533
-0.632095 0.0799257 -0.725874
-0.650741 0.0829518 -0.701797
-0.609706 0.0836332 -0.733497
-0.589601 0.0772681 -0.697961
-0.593302 0.0816661 -0.72391
-0.593119 0.0978157 -0.740113
-0.580948 0.100268 -0.717317
-0.636462 0.130238 -0.728324
-0.619374 0.137472 -0.748728
-0.642911 0.106145 -0.717865
-0.621482 0.106444 -0.740322
-0.597534 0.149069 -0.760646
-0.644729 0.149092 -0.712789
-0.6292 0.183582 -0.742944
-0.609714 0.189683 -0.762165
-0.660881 0.200613 -0.696826
-0.642029 0.204776 -0.728781
-0.632809 0.156724 -0.735119
-0.615608 0.164412 -0.754188
-0.643907 0.176559 -0.718481
-0.59739 0.171252 -0.764768
-0.59667 0.122251 -0.75307
-0.646414 0.127157 -0.708613
-0.575366 0.119103 -0.737194
-0.575236 0.127246 -0.711555
-0.573929 0.13997 -0.755549
-0.57027 0.145396 -0.730889
-0.572791 0.154859 -0.706966
-0.567729 0.160898 -0.746781
-0.577296 0.164438 -0.765672
-0.569067 0.172229 -0.727483
-0.573396 0.18328 -0.702731
-0.566637 0.184189 -0.751116
-0.584106 0.18991 -0.771595
-0.571287 0.204348 -0.726969
-0.703505 0.28827 -0.700275
-0.645294 0.253648 -0.741057
-0.598372 0.254471 -0.76901
-0.666735 0.257002 -0.717777
-0.688676 0.263215 -0.698717
-0.623341 0.267571 -0.759878
-0.598685 0.219736 -0.771279
-0.595993 0.271254 -0.703633
-0.603767 0.291632 -0.713833
-0.622124 0.292931 -0.757714
-0.663698 0.297974 -0.742079
-0.624728 0.210682 -0.752348
-0.660273 0.274348 -0.733455
-0.644316 0.282268 -0.749811
-0.596935 0.283279 -0.758631
-0.680085 0.285174 -0.718787
-0.638335 0.227742 -0.740767
-0.654515 0.230136 -0.720248
-0.674079 0.236696 -0.697015
-0.623331 0.239072 -0.758574
-0.567994 0.213178 -0.758732
-0.577618 0.261888 -0.748084
-0.576036 0.230516 -0.714032
-0.572559 0.234723 -0.738319
-0.574372 0.23987 -0.764384
-0.590188 0.279258 -0.729241
-0.581348 0.254698 -0.719925
-0.57649 0.212343 -0.696269
-0.707279 0.311358 -0.724316
-0.597772 0.30666 -0.741746
-0.635343 0.315171 -0.754385
-0.675971 0.319466 -0.723081
-0.615485 0.320119 -0.711157
-0.652134 0.325058 -0.729344
-0.655055 0.325926 -0.701889
-0.681943 0.330039 -0.696045
-0.688224 -0.00504825 -0.599112
-0.640811 -0.000192028 -0.655801
-0.620524 0.00193428 -0.615622
-0.682834 -0.032503 -0.59726
-0.656646 -0.0293884 -0.619783
-0.63122 -0.0193623 -0.605289
-0.635669 -0.0129189 -0.632158
-0.680383 -0.010644 -0.62022
-0.662207 -0.00991174 -0.64177
-0.677777 0.0973202 -0.625187
-0.662354 0.0906503 -0.670007
-0.645553 0.0171203 -0.675704
-0.672016 0.0822898 -0.641864
-0.683784 0.0754449 -0.600773
-0.667492 0.0602987 -0.658563
-0.674761 0.0581066 -0.633685
-0.680683 0.0570937 -0.610783
-0.625515 0.0283146 -0.689615
-0.606542 0.0356544 -0.671248
-0.648865 0.035933 -0.690031
-0.678456 0.035497 -0.622766
-0.663522 0.0357842 -0.671626
-0.620588 0.00715768 -0.640551
-0.67249 0.0357312 -0.647271
-0.683761 0.0362949 -0.598814
-0.6009 0.0421378 -0.606186
-0.60054 0.0469774 -0.65332
-0.609114 0.0283756 -0.647597
-0.600501 0.0459182 -0.631858
-0.658588 0.0592355 -0.685597
-0.595323 0.059949 -0.671359
-0.677137 0.0123161 -0.634994
-0.664449 0.0125172 -0.658174
-0.682844 0.0137364 -0.610478
-0.620731 0.0140835 -0.666069
-0.678509 0.0777334 -0.619725
-0.61008 0.0236976 -0.623265
-0.610934 0.0186572 -0.598848
-0.684343 0.0957952 -0.605042
-0.593186 0.0663392 -0.645502
-0.587217 0.0867885 -0.636884
-0.591558 0.0695558 -0.616647
-0.586024 0.0895759 -0.664113
-0.585553 0.0992864 -0.61718
-0.732809 0.202431 -0.595744
-0.714356 0.197982 -0.613566
-0.696797 0.190048 -0.633087
-0.700874 0.174596 -0.61384
-0.695693 0.137826 -0.597167
-0.672563 0.109689 -0.643062
-0.67743 0.138664 -0.63855
-0.664065 0.128551 -0.666771
-0.654657 0.165584 -0.694758
-0.683743 0.1209 -0.615886
-0.686159 0.165378 -0.634926
-0.66185 0.153159 -0.676654
-0.690776 0.149762 -0.615448
-0.676245 0.196321 -0.670004
-0.606262 0.199528 -0.598413
-0.596954 0.199501 -0.623453
-0.691601 0.205551 -0.652792
-0.681059 0.181568 -0.653245
-0.667367 0.175529 -0.674476
-0.653688 0.139147 -0.69172
-0.672264 0.157226 -0.657047
-0.653388 0.112219 -0.692711
-0.584936 0.157768 -0.613031
-0.581763 0.152477 -0.638714
-0.579325 0.14629 -0.662906
-0.576698 0.13682 -0.686646
-0.586332 0.196975 -0.649375
-0.581169 0.120443 -0.665408
-0.581552 0.131705 -0.646027
-0.583044 0.129183 -0.62062
-0.577671 0.191441 -0.675915
-0.579754 0.171682 -0.656886
-0.585691 0.177118 -0.631464
-0.583255 0.109532 -0.641685
-0.593517 0.180873 -0.606913
-0.575632 0.16417 -0.682156
-0.580763 0.108391 -0.690444
-0.760194 0.256966 -0.638587
-0.740634 0.259867 -0.653413
-0.71952 0.253574 -0.662513
-0.782918 0.258559 -0.616737
-0.7113 0.269402 -0.682555
-0.696376 0.246163 -0.677722
-0.731801 0.239801 -0.638625
-0.757422 0.237403 -0.618101
-0.733737 0.275182 -0.669601
-0.779163 0.235408 -0.598334
-0.704934 0.230743 -0.655738
-0.757378 0.279046 -0.655849
-0.768126 0.28263 -0.595592
-0.77368 0.285421 -0.629968
-0.723683 0.295963 -0.684494
-0.732888 0.219806 -0.615111
-0.717059 0.296107 -0.608079
-0.711383 0.214839 -0.634009
-0.754637 0.218703 -0.597415
-0.600618 0.221209 -0.640679
-0.648639 0.258042 -0.609444
-0.607333 0.266777 -0.67933
-0.623226 0.267447 -0.655108
-0.643433 0.270857 -0.634388
-0.665941 0.276389 -0.618803
-0.624452 0.282648 -0.673476
-0.690858 0.28518 -0.609875
-0.660312 0.286428 -0.63865
-0.6338 0.236529 -0.599116
-0.603048 0.244731 -0.659939
-0.621891 0.246915 -0.629524
-0.613887 0.287878 -0.693297
-0.644937 0.289345 -0.658576
-0.680248 0.294011 -0.63129
-0.612992 0.220106 -0.612792
-0.682896 0.219814 -0.674721
-0.58724 0.218726 -0.668819
-0.587398 0.243801 -0.690869
-0.753022 0.306527 -0.606225
-0.765132 0.306721 -0.642023
-0.697461 0.308434 -0.610234
-0.754179 0.309281 -0.67365
-0.696745 0.315469 -0.645854
-0.725957 0.316426 -0.635224
-0.707501 0.318276 -0.692342
-0.717121 0.324096 -0.668174
-0.622501 0.306952 -0.674963
-0.657339 0.311984 -0.639083
-0.66169 0.317288 -0.675926
-0.689342 0.32645 -0.670894
-0.208535 -1.39438 -0.529307
-0.176464 -1.39531 -0.496586
-0.128561 -1.39613 -0.512269
-0.0333837 -1.40316 -0.513313
-0.0798228 -1.39451 -0.526064
-0.0784745 -1.40239 -0.499586
-0.398241 -1.39415 -0.500895
-0.30143 -1.39361 -0.536195
-0.338473 -1.39385 -0.500204
-0.232024 -1.39365 -0.497763
-0.267312 -1.39436 -0.500944
-0.245972 -1.39388 -0.548802
-0.12106 -1.3935 -0.550127
-0.172513 -1.3939 -0.541635
-0.0290079 -1.39411 -0.544895
0.0503685 -1.39289 -0.512562
0.0936459 -1.3924 -0.502241
0.0220485 -1.39409 -0.524067
0.140256 -1.39396 -0.503184
-0.0332739 -1.20274 -0.499309
0.0166966 -1.24079 -0.500694
0.0585603 -1.20428 -0.502029
0.00579481 -1.21053 -0.507102
-0.0540194 -1.10176 -0.52487
-0.0942061 -1.10563 -0.50366
-0.00476978 -1.12368 -0.51691
-0.0354216 -1.13504 -0.515997
-0.0698636 -1.13613 -0.501854
0.0297266 -1.11327 -0.507305
0.061783 -1.1714 -0.497813
0.010334 -1.14849 -0.507611
0.0110631 -1.18561 -0.500213
0.0350911 -1.15745 -0.499096
0.138583 -1.19134 -0.498281
-0.10157 -1.06465 -0.498503
-0.0536241 -1.00675 -0.495355
-0.019092 -1.09148 -0.516416
-0.00298841 -1.03641 -0.498094
-0.0806947 -1.07974 -0.517161
-0.066557 -1.05771 -0.510687
-0.0605643 -1.0335 -0.50142
-0.0921159 -1.04249 -0.497797
-0.0352162 -1.04717 -0.497468
0.0947252 -1.0795 -0.495509
0.0528969 -1.06285 -0.503854
0.0188047 -1.0546 -0.502977
0.0661114 -1.08463 -0.504326
-0.705101 -0.0382218 -0.539852
-0.712213 -0.0654728 -0.502762
-0.703679 -0.0634245 -0.527681
-0.704647 -0.0138882 -0.522259
-0.699708 -0.011161 -0.549866
-0.696665 -0.0368539 -0.567583
-0.711108 -0.0399857 -0.513497
-0.653259 -0.0663658 -0.517629
-0.62091 -0.028314 -0.513336
-0.623804 -0.023715 -0.542005
-0.625416 -0.0175345 -0.574114
-0.605687 -0.0100339 -0.495881
-0.693865 -0.00944524 -0.577465
-0.609902 -0.00433931 -0.522566
-0.620054 -0.0012776 -0.59367
-0.612293 0.00225126 -0.549688
-0.694193 -0.0785182 -0.512796
-0.672521 -0.079065 -0.504049
-0.636572 -0.0476516 -0.530661
-0.678359 -0.0732008 -0.528259
-0.66961 -0.0527329 -0.572084
-0.639816 -0.0449735 -0.560591
-0.659317 -0.0620267 -0.544955
-0.634002 -0.0506195 -0.502156
-0.688989 -0.0607038 -0.550699
-0.64747 -0.0402175 -0.591268
-0.698761 0.0631002 -0.541477
-0.706843 0.0787018 -0.521437
-0.704191 0.00736548 -0.50321
-0.699207 0.0167299 -0.530531
-0.699721 0.0849833 -0.550292
-0.703256 0.0314273 -0.506882
-0.701006 0.0481245 -0.523649
-0.715899 0.102294 -0.51278
-0.688203 0.014553 -0.586751
-0.597582 0.0140776 -0.504145
-0.693361 0.0147205 -0.561028
-0.599365 0.0203319 -0.529795
-0.6008 0.0276678 -0.555319
-0.688843 0.0379622 -0.574286
-0.694608 0.0405392 -0.54876
-0.601406 0.0353934 -0.580501
-0.692456 0.0622587 -0.56355
-0.686173 0.0593904 -0.587976
-0.690985 0.0867712 -0.579568
-0.612165 0.010854 -0.575142
-0.584371 0.10177 -0.551228
-0.587121 0.0871642 -0.593113
-0.587455 0.0794734 -0.568308
-0.586094 0.0730884 -0.542863
-0.583645 0.0927139 -0.524668
-0.582813 0.0877408 -0.498385
-0.592685 0.0609278 -0.587459
-0.590828 0.0461477 -0.53606
-0.590195 0.0393197 -0.51055
-0.592587 0.0535176 -0.561496
-0.585334 0.100835 -0.575507
-0.585324 0.0661804 -0.516932
-0.799397 0.200668 -0.510484
-0.736619 0.14834 -0.525605
-0.707454 0.141816 -0.57245
-0.741886 0.134732 -0.501705
-0.716183 0.132802 -0.543271
-0.722976 0.123747 -0.51831
-0.789983 0.192285 -0.53817
-0.716822 0.182845 -0.594876
-0.750754 0.200985 -0.578702
-0.74261 0.182459 -0.562778
-0.786245 0.173282 -0.515234
-0.759213 0.172666 -0.53728
-0.727443 0.112895 -0.496154
-0.702042 0.111743 -0.561212
-0.709647 0.106098 -0.534377
-0.720684 0.170265 -0.575036
-0.704862 0.159806 -0.594456
-0.731949 0.188714 -0.58054
-0.728608 0.159741 -0.551333
-0.768893 0.195672 -0.559368
-0.762124 0.154494 -0.509659
-0.62348 0.187901 -0.527644
-0.618622 0.191268 -0.54899
-0.635938 0.194565 -0.510143
-0.613012 0.196026 -0.573913
-0.635573 0.204156 -0.534915
-0.602387 0.173016 -0.562838
-0.602873 0.15496 -0.516339
-0.596448 0.152375 -0.541677
[...]
POINT_DATA 14290
SCALARS scalar float
LOOKUP_TABLE default
21278.5
20090.2
20870.9
20681.5
20199
22022
21777.8
21973.3
22250.5
22965.1
23719
24204.9
22147.9
22839.4
25252.3
23081.3
22541.3
23477.8
18436.6
19473.2
23654
25068.2
20858.3
25037.4
23509.7
23035
23133.7
24272.3
22745.3
25400.3
23934.2
24609.9
23026.9
24636.8
21716.3
22834.7
21253.1
22167.5
21310.2
21455.7
19111.8
20296.8
20632
21272.5
19764
21642.2
21460.2
19381.1
19040.9
21506.6
21487.9
21078.7
18779
21296.3
20497.3
18798.9
18630.8
21055
19300.7
19641.7
20441.1
21104.9
17690.3
21661.8
21463.3
19362.5
22310.1
21405.4
21933.6
30529.8
23809.1
27822.3
31469.3
32605.7
23073
23910.5
24915.2
18941.4
19624.2
21762
23063.5
22159
22275.8
23446.4
19700.4
23503.6
22844.5
25400.3
23214.6
25520
26333.8
21957.9
24119.2
21770.3
26630.2
23363.9
25642.7
25508.1
25944.2
23374.9
24750.8
26112
24562.4
21019.7
22777.8
24911
23904
25726.4
23962.7
25282.6
25593.1
23876.8
24057.5
23053.9
22252.7
22664.4
21457.8
22647.1
23584.5
23087
22679.5
23296
21695
21047.2
21502.6
20627.3
21638.5
22310
22682.2
22124.4
22378.3
20768.6
23255.6
21790.8
21377.1
22382.3
21659.8
22405.4
22159.8
20985.7
23469
23316.5
22961.7
22885.2
20576.2
22295.7
23031.2
23063.1
20185.5
22233.4
22841.1
22391.1
23738
22141.9
22270.7
20033.5
21242.9
21607.1
18482.2
21657.1
20455.9
21244.5
21822.7
21148.5
21917.5
20799
18686.3
21885.6
17426.1
20459.5
22160.2
20680.6
21471.3
23472.2
18685.1
20153.1
20328.5
19638.7
20387.4
21680.1
20886.5
21869.6
21758.9
20189.6
17986.4
18141.9
21404.5
21121.7
22049.3
20314.9
19575.8
18440.5
19268.1
22084.4
21235
24344.1
20282.3
32009.4
27603.2
32377.4
30062.8
23967.3
24700.9
32852.1
33135.6
11918.8
18742.7
17489.8
13514.9
14191.4
17326.9
4433.83
5059.2
7702.69
11137
9598.07
5251.97
5486.91
6576.34
5712.76
8142.4
9388.28
7121.98
8261.26
9725.71
9952.76
11408.9
10402.5
20311.3
21538.8
19755.7
15218.1
14636.6
23711.2
13262.1
14782.9
10869.7
14264.2
9791.57
19982.9
19003.7
21177.9
19381.5
20127.5
18669.2
18684.3
19077.8
19253.4
21899.6
21473.8
20348.9
23361.5
20929.8
21802.8
21586.4
20851.4
20558.6
19194.5
22207.9
21925.3
19946.9
18959.6
20128.6
21645.6
21672.1
20326.2
23047
20125.7
22142.4
23243.6
19657.8
22200.9
18327.1
18150.9
20102.5
21108.7
19953.7
18206.5
21565.6
20978.8
20717
20384.6
21312.5
20354.1
20739.4
21675.2
24274.2
22139.1
21800.7
21148.4
21314.2
23812.7
21788.5
22278.3
22940.2
25120.4
22956.2
21814.1
24121.6
22864.7
23009.8
22500.5
22814.4
20388.6
22335.9
21511.1
21706.7
21964.7
23712.7
21394.7
19292.8
19008.7
20261.9
21571.2
19417.2
21076.3
19794
23664
23494.1
21325.2
19774.8
19136.6
22497.9
20099.4
20755.1
21975.3
22563.5
23199.3
19243.9
22034
20256
23483.5
24170.3
22361
24161.1
23080.8
24316.2
23283.4
24142.9
22722.4
22158.6
23948.3
21524.8
24298.3
23957.6
24408.9
24010.6
24091
22580.9
23261.8
23402.2
23853.8
23951.8
21548.8
21099.1
22112.5
21784.8
24022.5
21669.8
21264.9
23951
21345.2
23643.3
21420.8
23035.5
21679.7
25122.4
24897.9
21931.5
23326.6
21395.3
21655.8
21825.2
25012
24558.9
22902.4
23237.4
21824.2
21418.5
21957
21991.5
21659.1
23414.4
21728.3
22458.7
22456.1
22216.3
21363.4
21741.8
22239.3
14716.5
16349.9
17262.7
15760.7
19195.8
16246.1
16035.5
18441.8
17566.7
17748.4
15920
20232.6
19115.4
14684
19329.7
13758.7
15719.4
12980.5
13530.8
14473
18937.6
13531.6
16103.2
19702.9
18675.7
14469.4
14615.7
15956.5
15112.2
13223.4
17994.8
15024.3
16872.8
14269.4
13193.1
17668
18679.7
19652.1
17472.8
18245.4
6569.47
6852.31
4559.78
10337.7
9429.89
12229.4
11433.3
8292.41
11620.2
11476.2
10163.3
10411.1
10925.9
10209.5
12248.5
8854.37
9313.2
9672.28
11599.6
10288.8
12107.5
12004.9
11566.3
11539
12533.6
11245.6
11520
12299.5
12529
11066.9
10909.6
11417.3
9946.96
10315.5
11302.9
11482.9
10876.6
10715.1
11118.1
8940.21
11465.7
10234
11270.2
8084.55
10623.5
9441.53
11002.5
11216.9
10790.6
10320.8
11598.5
11952.4
8838.85
9446.94
11062.3
11708.6
11082.9
10753.6
9499.11
8761.21
9953.53
9257.48
7661.76
9032.13
10167.6
9746.42
9631.14
12251.3
6251.99
9581.6
10275.9
8980.21
7617.59
7819.36
6490.16
12573.8
10838.4
10678.2
11027.9
11340.8
10012.2
11688.3
10027.2
10770
10781.8
10101.6
10096.8
9258.75
11791.7
9248.73
10635.5
9721.73
10754
12319.4
9365.94
10266.2
10379.7
10391.8
10825.3
9260.08
10131.9
10244.5
8757.23
7863.55
10485.9
10230.8
9473.04
6683.86
8404.68
6157.01
10464.5
12125.2
9805.05
10013.4
10113.8
11056.6
8794.46
8966.64
9867.43
11449.1
12117.9
13031
11234.9
10195.7
12892.6
11023.9
10530.1
9948.93
8083.04
14480.9
11281.6
21399.5
16908.1
26756.7
13845.3
25006.9
14015.4
22347.7
20685.3
19526.3
18209.8
15728.9
9263.36
22074.8
12564.3
17571.4
20983.1
21770.7
13940
16377.7
12010
12992.6
13857.8
12814.3
23157.8
23609.6
20053.1
24887.3
12509.4
13439.1
20972.9
10998.6
13613.8
8383.08
13207.5
12197.5
12687.7
16550.5
18511.6
22861.1
11275.4
14630.6
18759.8
16866.2
9216.53
12076.6
16902
11216.3
15806.8
17021.4
11303.6
10406.5
16888.8
10830.1
15028.8
10897.3
13200
21233.5
20876
22326.7
23430.1
26049.3
23247
21550.7
22018.6
23050.6
25784.6
26275.6
22809.5
23780.5
22533.8
28178.6
25967.7
21864
23980.3
24021.8
25039.1
24716.9
21673.2
19579.9
21061.2
20168.2
19147.4
19754.7
22889.9
19564.7
19197.6
25399.8
21730
22006.6
20825
21046.2
21386.5
20948.5
19507
22855.6
24599.3
20685.4
26655.5
20901.8
21274
22057.2
24132.8
20589.7
24903.8
21746.3
23813.8
24188.3
22330.3
20419.5
24161.5
23720.5
21337.7
22421.4
21706.8
21565.5
24862.3
24749.7
19877
24205
22205.7
24272.1
24046.6
21991.9
24621
20475
19358.2
20615.4
24303.3
20764.9
24534.4
20898.6
20830.3
20734.5
19605.3
19559.2
19854.3
20535.2
20612.6
21315.5
22651.9
25338.8
19946.2
20977.3
22117
24381.9
20816.8
24074.2
20810.6
20895.7
20986.7
22199.4
19697.3
20572.2
25746.5
26471.9
22164.1
21246.3
20186.1
22457.2
22018.3
19751.3
21205
18614.5
20260.8
21565
23872.3
23706.2
20424.4
20826.3
20805.5
21922.1
23284.2
22614.2
20389.2
21904.1
20390.9
19316.5
21073.6
22467.6
22378.3
20670.6
22355.7
20774.1
21467.5
21963.2
21988.9
21607.5
22786.5
21640.9
19282.8
19683
20341.3
22151.2
20769.5
22836.2
21276.5
22288.9
19062.6
20414.3
22113.2
22597.1
19135
23014.7
22476.5
22453.5
20123.9
25145.9
23921.7
23097.2
22459.4
24924.5
25823.4
22107.5
25109.3
25284
24886
25527.8
23744.4
25135.3
25341.4
25581.1
23669.2
21886.6
24697.9
19688.8
20547.7
20825.8
19211.8
20736.3
21004.9
19286.6
22141.9
19119.4
20022.6
20875.2
20774.8
20724.2
23254.7
21149.7
20892
22795.6
21729.1
21357.8
22698.4
22530.1
21022.7
22162
23016.3
21827.3
23173.4
22619.3
22668.3
21266.5
20460.1
21506.5
20059.6
22255.5
20537.7
21319.5
21200.9
20379.3
21029.2
22214
22536.6
21097.7
21416
21111.3
21348.1
21137.4
21996.6
20241.4
21703.3
20396.1
20578.1
20225.3
19626.7
19686.6
20355.5
21299.5
19683.1
21624.4
20783.5
20679.1
22688.7
19214.4
20405.7
18913.6
22331
19600.5
24105
21329
21942.5
22320.4
20006.9
21336.7
24229.7
24880.3
22341.4
19689.6
22478.5
23287.7
25291.8
23988.2
23956.9
22130.3
22764
21836.5
18941.6
24313.5
23723.7
21630.6
22730.2
23743.8
23248.1
20710.9
22675.8
20395.1
22700.1
21241.2
22386.4
24049.2
23205.1
22353.6
20944.7
21691.4
22622.4
20623
21182
21134.7
17673.4
19635.3
17624.4
16935.7
20734.6
23980.1
23177
21826.8
22368.3
22170.7
20789.3
22270.8
21370
21602.2
21050.2
20012
21451.2
18740.1
20093.1
21045.8
22268.7
21129.4
21830.2
22336.6
22135
23420.7
23156.7
22323.4
24730.9
22888
22448.9
24746.9
20683.7
21647.2
22197.5
23258.4
24153
21395
22741.2
24613.9
23626.8
22567.5
20423.1
19390.4
20209.1
21190.9
22208.4
20821
22143.6
20644.1
19896.2
19586.2
20120.3
22546
18390.8
19326
20024
22000.2
20318.1
18335.4
19487.8
20561.1
18052.2
22146.5
19444.9
21794.2
21791.4
17926.9
22777.8
18315.8
19833.5
20287.6
20371
18367
17809.7
19503.5
22585
19191.5
22044.6
21209.2
23329.9
21581.9
25113.6
21072.9
24372.7
21295.4
21925.6
23321.7
24918.6
20804.7
20622.7
21012.5
20527.8
18985.5
22774.7
23086.7
22489.4
24640.1
23399.5
19873.3
22908.4
23904.9
21424.3
21896
23697.4
22794.8
20760.7
23074.3
22990.6
19878.1
22099
20920.2
21612.2
22817.9
22033.7
20603.9
20331.8
21560.1
23535.6
22879.5
23110.4
19905
18589.5
20384.9
21726
21099.4
19687.5
20593.7
19264.9
21221.6
22228.2
21845.1
21998.7
22682.2
16663.9
14381.6
17582.7
15243.2
14851.9
13477.2
17234.8
14613.3
17216.5
16728.7
18138.8
16934
15937.7
18117.2
18608.8
18666.4
19512.4
18036.1
16482.8
16329.5
17797
17875.8
14570.6
17795.1
17760.5
15449.1
15965.2
16444.5
16271.1
14654
15282.8
14907.2
13632.9
14430
15510.8
14801.3
14806
15709.6
14549.7
14569.7
15038
15774.8
17041.6
19471.5
16787
18447.2
18686.1
17146.3
17496.1
20918.3
17140.3
19497.1
13791.1
20219.7
7103.37
8180.82
9919.23
9298.22
11618.6
10648.1
11403
11820.8
10417.8
12007.1
12549.4
12330.7
12075
9809.08
11739.6
12168.3
10289
12637.1
9411.02
12296.2
12581.4
8969.85
10217.2
11080.4
11865.3
12733.9
11914.2
11668.1
6608.93
10150.1
12830.6
10919.6
11919.2
7575.11
8958.71
9450.27
9427.91
7832.18
9094.82
7838.83
11509.7
10907.3
9146.96
10739.7
9630.5
8961.65
9380.39
10485.5
8049.85
7872.63
12641.8
11542.6
12205
12561.4
10819
12155.8
10827.9
10598.4
13327.2
12253.5
9993.48
12957.3
11637.6
12138.3
7195.76
12285.6
12219.7
10305.9
11483.3
10942.1
11318.5
11141.3
11063.5
11792.8
9364.56
10199.5
10547.2
8915.23
9512.13
8375.88
10969.9
11413.8
9183.61
9877.52
11858.3
8058.99
5958.5
10597.2
7232.87
11358.2
12172.3
9403.36
8734.16
11239.2
12748.9
12498.4
10565.7
13071.7
11984.1
12061.7
14245
12344.4
10837.2
12877
14353.8
13362.5
10044.6
12442.5
13595.5
11777
9247.2
10332.6
10646.8
11503.2
11222.2
9248.26
10833.8
10008.6
10517.7
11973.6
12044.3
12751.6
11318.5
9417.04
11660.1
11029.3
13340.7
11742.6
11443.7
11334.2
12044.1
13330.6
11911.4
12178.4
10369.3
12907.2
11687.3
12018.2
11663.9
11518.9
10791.4
11248
13006.8
13100.9
10441.9
10575.7
12455.9
12851.6
10496
10458.1
10674.1
11144.8
10254
10153.4
7910.67
9047.66
10128.4
11675.6
10137.4
9548.33
10642.1
11293.1
11888.9
8994.18
7637.17
10202.6
8843.83
11283.6
11259
12402
10502.8
12234.3
10899
10949.1
13277.2
13546.3
10344.8
11215.4
13478.3
11199.1
12906.2
8902.58
9369.28
11572.5
9475.31
12465.1
19868.5
13551.5
11104.1
13400.3
19053.3
21081.3
16870.5
16114.6
12072.4
8284.62
12274.6
25010.5
25161.5
11534.3
9060.55
16511.1
12174.7
11563.1
17477.1
20903.1
13147.7
17624
18055.2
19048.3
23589.5
11025.9
12044.5
10497.9
10753.6
10446.6
24741.7
10035.3
9955.45
11411.3
11490.1
11111
24052.9
12672.6
12626.4
11245.1
23440.6
23889.1
23578.6
14404.9
13416.1
23413.8
10881
13770.9
12193
24666.4
26035.8
15105.9
22099.1
13771.7
20857
15288.1
15742.8
10461.6
12709.2
10454.5
18002.6
14907
11540.2
16814.7
13075.1
11274.9
22914.7
13284.7
10587.8
12039
21214
19941.2
20708
21437.5
21268.7
20706.4
20986.3
21180.4
20265.8
23027.1
26308.6
24478.5
24618
25459.2
25969.6
25179.9
19434.5
21272.3
20070.2
28095.4
22364
26116.9
26194.4
26125.8
22005.9
26652.2
23745.5
22066.9
25006.6
21158.9
20829.9
19164.8
18969
19976.5
19846.1
21153.6
20780.8
22558.2
21889.5
24353
22475.3
22301.7
27255.8
23630.9
20220
20535.4
20469.1
25165.4
28336.8
24844.1
24128.8
19790.3
19310.1
20378.3
24016.8
25427.1
19225.7
20013.2
23028.8
21824.9
23688.1
19829.4
23872
20897.7
19429.3
20075.5
19751.8
19166.4
20730.3
21428.9
21272.9
20485.1
21774.4
20300.6
22171.5
21048.6
21186.9
20368
20686.2
22224.6
20655.6
21999.2
22418.1
22118.3
22725.3
21519.2
22725.2
21961.5
22514.3
21730.9
23246.6
23098.3
23604.1
23910.2
22696.1
21899.7
22826.9
22613.5
22609.7
23604.6
23853.2
20658.1
20954
21456.1
21603.5
21784.4
21673
21554.2
22278.6
20889.3
21455.4
22653.5
22549
22231.6
21067.4
20729.8
21828.8
21886.6
21643.9
20903.9
20271.5
22033.2
22369.3
23072.9
22339.6
21105.1
23209.4
20552.5
22022.2
20128.9
23545.7
21643.9
21879.2
22273.2
22427.6
23499.3
21699.4
21212.1
20828.2
19977.5
21035.1
21294.3
23199.6
20843.7
23143.2
19135.4
23614.5
19621.5
20731.2
19924.1
20353.9
20662.5
22704.9
22649.5
24127.1
20736.4
22069.8
24188.6
22092.2
23812
23018.9
22794.6
21857.9
22449.7
22309.6
21862.4
23920.2
22385.9
23374.3
22553.4
23389.2
22146
22783.4
22397.3
24745.6
23269.3
23939.7
21543.7
24521
21595
25226.3
25497.7
23743.3
25833.4
23214.4
25006.3
24149.5
23730.4
23966.1
25185.4
25165.9
21768.5
21451
20253.9
22527.6
21431.6
20131.4
22633.7
19600.1
23197.3
21689.1
21507.2
21267
19365
21393.7
19989.5
23129.2
21873.3
20986.2
22619.5
22964.6
22527.9
18854.8
22266.8
19673.7
20925.7
20907.7
23338.5
22243.6
22572.9
21319.4
19265.3
21755.5
20415.5
21297
20745.9
20253.3
22465.4
18389
19541.9
22911.8
21620.9
23128.5
17758.5
19999.8
18388.9
19551.3
21461
20358.7
21341.4
23004.1
21464.7
22038.4
22507.8
22297.2
21698.7
21890.8
21714.5
20233.3
20413.1
22754.9
23458.3
22421.1
22901.5
20809.8
22056.1
22681.7
22770.9
18656.3
23337.6
23481.8
22652
23760.4
21576.8
23085.3
20101.6
21517.4
23141.1
21776.7
22314.9
21289
21777.5
22536.8
21961.4
21094.1
21620.2
23487.2
22320.1
21255.9
21426.7
21587.4
21096.6
22147.9
20393.1
20994.3
21380.4
20144.6
20961
22780.7
22140.6
22051.2
21631.3
22424.4
22916.2
21398.7
24209.4
24469.1
22469.7
22708.6
22293.8
22270
22152.8
23920.9
23587.8
23763.2
21758.1
19817
21776.3
21513.7
24246.8
24106.3
23360.3
22553.5
23157.4
22309.1
22408.3
22684.5
23350.5
21333
18548.7
20071.1
20961.8
21840
19272.5
21078.7
22418.9
22408.7
19747.1
18256.2
18336.7
22417.1
23260.9
21720.5
21355.3
21271.2
21592
19980.5
19343.6
21344.1
22302.8
22899.3
23053.8
24033
21188.5
23339.9
23161.8
22171.6
21181
23323.9
24400
18775.6
18354.9
17782.7
18629.6
19257.7
19670.7
19462.5
20282.6
21915.6
20672.2
21770.8
21279
18019.9
17971.8
19366.3
21040.9
18813.4
19656.7
19714.2
19869.7
18988.1
19117.3
19541.9
20106.5
20025.8
20522.7
19485.1
19410.2
21352.8
19992.4
19888.7
19918.5
20298.9
19750.9
20491.4
21111.3
20364.4
23706.5
24312
25830.5
25169.4
26188
24883.5
22798
27041.9
27253.8
25290.9
23256
26110
27403.3
26717
25865.3
23138.1
23727.7
22806.8
21883.5
20772.5
19724.5
20801.5
24012.8
24333.3
22940.2
20703.2
22859.3
20653.8
22527.2
21663
20910.4
18195.5
21886.2
15134.7
21737.3
12434.1
19489.2
21357.9
19827.8
17016
22867.9
22150.7
19846.5
23257.9
17962
42950.1
51369.5
51620.6
46093.3
49978.7
41451
29873.9
35377.5
46791
40706.6
53274.8
50449.1
42347.4
25582.2
35966.1
33429.7
16721.7
17067.6
15621.6
15750.3
16908.4
16030.1
17870.4
17826.8
18185.1
16470
17846.5
14044
18403.2
19013.2
17821.2
18778.3
18253.2
20352.5
19954
19964.9
19507.4
19991
18210.3
20375.8
18460.9
18553.6
18531.5
18888.3
20108.7
18490
17660.2
18848.8
17948.2
17565.7
18743.6
19172.6
17809.3
16466.7
15055.4
16475.3
16059.2
15260.5
16185.3
16194.5
14929.2
15820
15260.1
15637.1
14186.3
14781
15594.4
14637.6
14747.4
16184.8
15922.1
15570.8
14935.9
15327.1
15878.6
16056.1
17653.8
17847.2
16867
15527.7
11730.7
14834.6
15417
16876.4
14011.1
15122.5
14455.4
4819.63
6857.23
5831.89
10490.3
9643.42
7139.21
11672.9
13779.2
13210.9
13132.7
13291.9
13829.7
12854.9
11761.7
11649.9
8998.3
13437.9
12336.5
13053.1
11131.1
11432.2
11950.8
11587.8
11099.4
11840.6
8639.91
9463.61
11424
10869.6
6791.36
11636.9
11227.1
10890.3
11120.9
10000.4
11541.9
9287.39
12087.9
8780.79
9555.18
7336.24
12756
13757.5
8697.73
13161.8
10889.8
11810.5
10779.5
10563.1
11722.5
8942.18
7880.19
7598.27
9271.76
10289.5
7045.53
9730.19
12909.8
4094.73
6573.71
9032.47
7803.84
8973.43
11390.9
8340.83
7546.24
10798.4
10265.4
10657.8
11752.1
10271.4
8601.5
10197.9
7299.13
8904.75
9656.3
8104.34
8875.4
12033.9
9586.84
10871.1
12726.8
10469.9
10599.6
10837.7
11425.1
8847.11
13153.2
11866.2
10565.6
11169.9
11145.2
8123.94
11272.9
12943.1
11349
11710.7
12152
11024.4
11755.5
11662.2
12287.4
11314.4
12058
12135.6
11811.6
10551.3
12946.7
11842
10139.5
11505.7
11822.2
12392.2
11884.4
12912.2
8509.5
12158
10639.3
10076.7
13456.8
11458.7
12547.6
10617.5
11953.7
8103.74
11024.2
11368.4
10885.3
12783.1
10947.2
11441.9
9436.14
11026.6
11218.1
10910.6
8542.73
11491
11105.3
11323.6
8375.22
10779.3
11555.1
11729.8
12182.3
12084.5
10984.9
10362.4
11591
11233.7
11073
11270.2
13344.1
12413.3
12578
11827.1
11058.6
10494.8
10920.6
11464.5
13368.6
12018.9
13443.6
13225.1
10257.9
11910.4
9641.83
11293.9
12279.2
10832.6
10954.4
11529.6
11238.7
11979.4
9268.9
10648.1
10678.4
11451.3
11144.7
10189.5
11018.4
13274.2
11632.1
11585.2
11381.9
11515.4
9002.85
12497.8
9989.25
11522.4
10536
11628.7
8839.12
10380.1
10879.5
12567.3
9768.11
11201
9734.59
8052.15
22333.7
17899.3
11699.3
24791.9
20845.9
26567.8
9242.65
23641
13757.2
21818.3
17946.6
21292.8
11078.9
11224.4
13096.5
9584.63
13808.5
13426.3
10280.6
22617.8
13997.4
21214.3
20956.9
11713.7
17613.6
10965.2
12810.6
9157.66
11198.1
10410.9
10342.6
10808.8
13198.5
17957.9
13956
10118.1
15270.8
12230.1
9702.08
22971.3
23450.4
19131.3
11804.2
18073
16445
15558.2
12289.5
11653.3
10733.5
11116.3
10533.5
21636.8
12432.1
21157.7
21944.1
23122
22607.6
22902.6
22296.2
23549.1
22437.8
23701.7
21593.4
24010.3
21571.8
21436.6
21584.9
21224.2
24536.1
21050.9
21927.7
19925.4
22015.5
22451.3
23008.3
20081.2
21044.8
21247.4
20805.1
19896.6
20831
21383.3
21188.2
21375.6
24335.6
21263.1
23173.2
24923.7
22273.7
22048
22191
22125
22817.4
26260.2
22087
20494.6
22611.3
23091.7
22094.1
27348.8
23939.9
21789.5
21995.8
22543.3
22040.1
22626.3
20399.8
23551.9
21654.1
22164.1
22141.5
22572.7
22237.6
23747
24427.3
23019.9
21461.1
21499.6
23325
22459.4
23988.4
23204
21843
23276.8
21106.6
22917.6
21762.9
22873
20812.6
22135.7
20293.4
19894
21789.3
23223
23344
23376.4
22165.9
21582.5
23178.3
23017.8
20837.7
20868.9
22889.5
21681.1
21175.5
21269.4
22866
22546.9
20849.4
22851.3
21895.7
19865.8
22736.6
22124.9
23372.4
23724.5
23249.7
20538.7
20850.7
21938.2
21853
21901.3
20657.1
23462.7
20214.2
23860.7
24206.2
23609.1
22307.8
22194.9
22215.1
22873.5
21318.7
22048.2
22138.5
21859.9
23074.4
23195.6
21718.2
21754
21446.9
23002
21878.2
22021.1
21257
21892.4
20736.1
21321.9
19472.7
19667.4
20022.7
20024.6
21106.4
19449.6
21648.2
21033.6
20671.4
23530
20446
20376.6
20895.2
19403
23365
20778.7
21118.5
20649
19028
21034.4
22135.9
20579.1
21267.7
23002.4
19610.2
18804.7
21906.7
21982.3
22260.8
21542.2
19655.9
22426.4
22691.6
19452.7
19174.9
20702.9
21379
19823.8
21986.5
22971.7
19792.3
20869.2
22300.7
22257.9
22716.5
23367.3
23229.4
23145.3
21872.8
23754.3
21913.7
20895.2
23561.6
23841.9
22111
21177.1
22102.3
22734.4
22383.7
23299.8
21472.8
21807.7
21239.8
22278.5
20756.6
24979.2
22844.2
22966.3
22461.6
24410.5
25707
23621.4
24381.5
21131.1
19694
21274.2
22873.6
21640.1
23843.8
21903.6
22788.4
18106.2
19591.5
20802.6
22487.9
21328.1
23199.7
21226.7
21085.1
21272.5
20729.3
20387.2
22025.5
21022
20557.3
21146.8
23332.7
21704.6
23219.9
21643.4
21162.5
23182
22175.6
20199.7
19438.9
23737.4
22594.2
19926.7
20244.1
22179.9
22166
20232.6
22943.7
20706.4
21084.6
24231.6
20638
20561.8
22612.9
24137.4
23535.2
21339.4
21362.6
23001.7
21357.2
21018.4
22340.3
21927.8
22282.6
22899.1
20899.6
22768
20975.7
23895.1
21551.7
22620.9
22648.6
22372
21902.9
20098
19948.6
22115.1
23504.5
18690.1
20044.1
21844
18175.3
19238.3
20246.7
23392.9
18341.3
23381.5
22488.7
21705.7
20301.5
19905.4
20159.4
19911.6
21668
19113.6
21842.4
20596
21661.6
20839.7
21113.1
20989.3
20841.8
20898.1
21861.6
20283.2
20654.8
22871.5
22914.3
21467.8
21411.7
20922
20717.2
20762.5
20727.7
21580.7
21766.2
20924.4
18856.1
21825.9
22158.7
21082
17904.4
19126
20297.9
22811.4
21444.6
23199.7
23695.6
20065.8
20607.7
20794
18690.1
20820.6
21503
19041.6
18803.8
19518.9
23264.7
22879.1
21418.6
21010.7
23901.2
24123.3
21337.2
22444.7
23205.3
22987.8
23339.6
21345
23847.5
22097.7
23110.9
22064.1
23935.5
21370
21327.8
21958.6
22364
22819.4
23058.2
21267.7
22337.8
22324.6
22279.6
21801.6
21333.9
21254.2
22379.5
23086.9
22784.3
22397.1
19831.2
21121.1
19519.5
21395.7
20204.7
21898.6
18305.3
19450.1
19020.6
21766.6
19470.2
22418.5
19093.7
19817.1
20954.3
19484.8
20593.2
20658.8
18999.4
19757
21381.6
21441.7
21015
20837.2
21447.1
21330.6
18955.3
20871.8
19850.3
20699.7
20219.1
19716.4
20749.3
19391.8
20263.8
20204.2
19531.5
19652
19587.3
19558.7
20771.9
21304.9
21999.1
21864.7
20058.8
22292.8
21935.4
21192.7
21499.5
19439.6
20713.4
22213.5
21028.4
20093.8
19492.9
19869.9
17768.3
18239.9
18573.7
19763.9
23835.8
23051.5
20512.6
22895.1
21390.2
23263
21955.2
22738
22471.6
22397
21957
19186
21426.8
22526.4
21349.7
21820.2
21818.4
20561.2
23380.5
23052
21213.9