# vtk DataFile Version 3.0
Happy Go Lucky
ASCII
DATASET POLYDATA
POINTS 14290 float
-0.605372 -0.147796 -0.696348
-0.636177 -0.143817 -0.708581
-0.608617 -0.130971 -0.719533
-0.632095 -0.116074 -0.725874
-0.650741 -0.113048 -0.701797
-0.609706 -0.112367 -0.733497
-0.589601 -0.118732 -0.697961
-0.593302 -0.114334 -0.72391
-0.593119 -0.0981842 -0.740113
-0.580948 -0.0957322 -0.717317
-0.636462 -0.0657618 -0.728324
-0.619374 -0.0585276 -0.748728
-0.642911 -0.0898544 -0.717865
-0.621482 -0.0895554 -0.740322
-0.597534 -0.0469306 -0.760646
-0.644729 -0.0469079 -0.712789
-0.6292 -0.012418 -0.742944
-0.609714 -0.00631671 -0.762165
-0.660881 0.00461263 -0.696826
-0.642029 0.00877567 -0.728781
-0.632809 -0.0392756 -0.735119
-0.615608 -0.0315876 -0.754188
-0.643907 -0.0194408 -0.718481
-0.59739 -0.0247479 -0.764768
-0.59667 -0.0737488 -0.75307
-0.646414 -0.068843 -0.708613
-0.575366 -0.0768972 -0.737194
-0.575236 -0.0687536 -0.711555
-0.573929 -0.0560295 -0.755549
-0.57027 -0.0506044 -0.730889
-0.572791 -0.0411413 -0.706966
-0.567729 -0.0351016 -0.746781
-0.577296 -0.0315619 -0.765672
-0.569067 -0.0237715 -0.727483
-0.573396 -0.0127196 -0.702731
-0.566637 -0.0118112 -0.751116
-0.584106 -0.00608985 -0.771595
-0.571287 0.00834759 -0.726969
-0.703505 0.0922702 -0.700275
-0.666735 0.0610019 -0.717777
-0.688676 0.0672143 -0.698717
-0.623341 0.0715704 -0.759878
-0.598685 0.0237352 -0.771279
-0.595993 0.0752534 -0.703633
-0.603767 0.0956317 -0.713833
-0.622124 0.0969309 -0.757714
-0.663698 0.101974 -0.742079
-0.624728 0.0146817 -0.752348
-0.660273 0.078348 -0.733455
-0.644316 0.0862679 -0.749811
-0.596935 0.0872793 -0.758631
-0.680085 0.0891741 -0.718787
-0.638335 0.0317421 -0.740767
-0.654515 0.0341358 -0.720248
-0.674079 0.0406961 -0.697015
-0.623331 0.0430719 -0.758574
-0.645294 0.0576471 -0.741057
-0.598372 0.0584708 -0.76901
-0.567994 0.0171772 -0.758732
-0.577618 0.0658882 -0.748084
-0.576036 0.0345161 -0.714032
-0.572559 0.0387228 -0.738319
-0.574372 0.0438696 -0.764384
-0.590188 0.0832577 -0.729241
-0.581348 0.0586973 -0.719925
-0.57649 0.0163423 -0.696269
-0.707279 0.115358 -0.724316
-0.597772 0.11066 -0.741746
-0.635343 0.119171 -0.754385
-0.675971 0.123466 -0.723081
-0.615485 0.124119 -0.711157
-0.652134 0.129058 -0.729344
-0.655055 0.129927 -0.701889
-0.681943 0.134039 -0.696045
-0.682834 -0.228504 -0.59726
-0.656646 -0.225389 -0.619783
-0.63122 -0.215363 -0.605289
-0.635669 -0.208919 -0.632158
-0.680383 -0.206644 -0.62022
-0.662207 -0.205912 -0.64177
-0.688224 -0.201049 -0.599112
-0.640811 -0.196192 -0.655801
-0.620524 -0.194066 -0.615622
-0.61008 -0.172303 -0.623265
-0.610934 -0.177344 -0.598848
-0.684343 -0.100205 -0.605042
-0.677777 -0.0986794 -0.625187
-0.662354 -0.10535 -0.670007
-0.645553 -0.17888 -0.675704
-0.672016 -0.11371 -0.641864
-0.683784 -0.120555 -0.600773
-0.667492 -0.135701 -0.658563
-0.674761 -0.137893 -0.633685
-0.680683 -0.138906 -0.610783
-0.625515 -0.167685 -0.689615
-0.606542 -0.160346 -0.671248
-0.648865 -0.160067 -0.690031
-0.678456 -0.160503 -0.622766
-0.663522 -0.160216 -0.671626
-0.620588 -0.188843 -0.640551
-0.67249 -0.160269 -0.647271
-0.683761 -0.159705 -0.598814
-0.6009 -0.153862 -0.606186
-0.60054 -0.149023 -0.65332
-0.609114 -0.167625 -0.647597
-0.600501 -0.150082 -0.631858
-0.658588 -0.136764 -0.685597
-0.595323 -0.136051 -0.671359
-0.677137 -0.183684 -0.634994
-0.664449 -0.183483 -0.658174
-0.682844 -0.182264 -0.610478
-0.620731 -0.181917 -0.666069
-0.678509 -0.118266 -0.619725
-0.593186 -0.129661 -0.645502
-0.587217 -0.109211 -0.636884
-0.591558 -0.126444 -0.616647
-0.586024 -0.106424 -0.664113
-0.585553 -0.0967135 -0.61718
-0.732809 0.00643067 -0.595744
-0.714356 0.00198181 -0.613566
-0.696797 -0.00595216 -0.633087
-0.700874 -0.0214037 -0.61384
-0.695693 -0.0581742 -0.597167
-0.672563 -0.0863111 -0.643062
-0.67743 -0.0573359 -0.63855
-0.664065 -0.0674491 -0.666771
-0.654657 -0.0304156 -0.694758
-0.683743 -0.0750999 -0.615886
-0.686159 -0.0306218 -0.634926
-0.66185 -0.042841 -0.676654
-0.690776 -0.0462379 -0.615448
-0.676245 0.000320763 -0.670004
-0.606262 0.00352757 -0.598413
-0.596954 0.00350111 -0.623453
-0.691601 0.00955116 -0.652792
-0.681059 -0.0144323 -0.653245
-0.667367 -0.0204712 -0.674476
-0.653688 -0.0568528 -0.69172
-0.672264 -0.0387735 -0.657047
-0.653388 -0.083781 -0.692711
-0.583255 -0.0864676 -0.641685
-0.593517 -0.0151269 -0.606913
-0.575632 -0.0318299 -0.682156
-0.580763 -0.0876088 -0.690444
-0.584936 -0.0382316 -0.613031
-0.581763 -0.0435229 -0.638714
-0.579325 -0.0497095 -0.662906
-0.576698 -0.0591803 -0.686646
-0.586332 0.000975275 -0.649375
-0.581169 -0.0755565 -0.665408
-0.581552 -0.0642951 -0.646027
-0.583044 -0.0668164 -0.62062
-0.577671 -0.00455905 -0.675915
-0.579754 -0.0243177 -0.656886
-0.585691 -0.0188809 -0.631464
-0.760194 0.0609655 -0.638587
-0.740634 0.0638671 -0.653413
-0.71952 0.0575739 -0.662513
-0.782918 0.0625582 -0.616737
-0.7113 0.0734017 -0.682555
-0.696376 0.0501631 -0.677722
-0.731801 0.0438009 -0.638625
-0.757422 0.0414031 -0.618101
-0.733737 0.0791818 -0.669601
-0.779163 0.0394081 -0.598334
-0.704934 0.0347423 -0.655738
-0.757378 0.0830458 -0.655849
-0.768126 0.0866296 -0.595592
-0.77368 0.0894205 -0.629968
-0.723683 0.099963 -0.684494
-0.732888 0.0238061 -0.615111
-0.717059 0.100107 -0.608079
-0.711383 0.0188388 -0.634009
-0.754637 0.022703 -0.597415
-0.607333 0.0707768 -0.67933
-0.623226 0.0714465 -0.655108
-0.643433 0.0748572 -0.634388
-0.665941 0.0803889 -0.618803
-0.624452 0.0866476 -0.673476
-0.690858 0.0891811 -0.609875
-0.660312 0.0904279 -0.63865
-0.6338 0.0405284 -0.599116
-0.603048 0.0487308 -0.659939
-0.621891 0.0509143 -0.629524
-0.613887 0.0918778 -0.693297
-0.644937 0.0933453 -0.658576
-0.680248 0.0980105 -0.63129
-0.612992 0.0241056 -0.612792
-0.682896 0.0238137 -0.674721
-0.600618 0.0252086 -0.640679
-0.648639 0.062042 -0.609444
-0.58724 0.0227261 -0.668819
-0.587398 0.047801 -0.690869
-0.753022 0.110527 -0.606225
-0.765132 0.110721 -0.642023
-0.697461 0.112435 -0.610234
-0.754179 0.113281 -0.67365
-0.696745 0.119469 -0.645854
-0.725957 0.120426 -0.635224
-0.707501 0.122277 -0.692342
-0.717121 0.128096 -0.668174
-0.622501 0.110952 -0.674963
-0.657339 0.115984 -0.639083
-0.66169 0.121288 -0.675926
-0.689342 0.13045 -0.670894
-0.208535 -1.59039 -0.529307
-0.176464 -1.59132 -0.496586
-0.128561 -1.59213 -0.512269
-0.0333837 -1.59917 -0.513313
-0.0798228 -1.59052 -0.526064
-0.0784745 -1.59839 -0.499586
-0.398241 -1.59015 -0.500895
-0.30143 -1.58961 -0.536195
-0.338473 -1.58985 -0.500204
-0.232024 -1.58965 -0.497763
-0.267312 -1.59036 -0.500944
-0.245972 -1.58988 -0.548802
-0.12106 -1.5895 -0.550127
-0.172513 -1.5899 -0.541635
-0.0290079 -1.59011 -0.544895
0.0503685 -1.58889 -0.512562
0.0936459 -1.58841 -0.502241
0.0220485 -1.5901 -0.524067
0.140256 -1.58997 -0.503184
-0.0332739 -1.39874 -0.499309
0.0166966 -1.4368 -0.500694
0.0585603 -1.40028 -0.502029
0.00579481 -1.40654 -0.507102
-0.0949555 -1.30708 -0.504737
-0.00499538 -1.3214 -0.517765
-0.035328 -1.33178 -0.516077
-0.0696845 -1.33336 -0.501885
-0.0529085 -1.30275 -0.526717
-0.0189012 -1.2939 -0.521248
0.010321 -1.34488 -0.507703
0.0110631 -1.38162 -0.500213
0.0291404 -1.31393 -0.509394
0.0350575 -1.35365 -0.499116
0.061781 -1.36743 -0.49781
0.138583 -1.38735 -0.498281
-0.117741 -1.19084 -0.497292
-0.106647 -1.2322 -0.521933
-0.111406 -1.26546 -0.510726
-0.098066 -1.19754 -0.51629
-0.131485 -1.2258 -0.497607
0.00278701 -1.22249 -0.523977
-0.0836254 -1.28076 -0.527218
-0.0671533 -1.25116 -0.534939
-0.0637569 -1.21769 -0.53441
-0.0305092 -1.23563 -0.523891
0.0482103 -1.21907 -0.515854
0.0887703 -1.2103 -0.509432
0.0192351 -1.251 -0.523294
0.097588 -1.28359 -0.504313
0.0785796 -1.23025 -0.517066
0.0531965 -1.25709 -0.52318
0.0271099 -1.21084 -0.517336
0.066618 -1.28844 -0.511389
0.114476 -1.25357 -0.513061
0.128202 -1.22817 -0.507337
-0.121851 -1.12208 -0.505112
-0.15776 -1.11276 -0.499502
-0.088728 -1.15227 -0.517327
-0.0874854 -1.13079 -0.515942
-0.0465949 -1.12028 -0.525913
-0.0675378 -1.10075 -0.502686
-0.0215205 -1.1841 -0.524353
-0.053737 -1.17852 -0.532475
-0.0473102 -1.1487 -0.535833
-0.0220333 -1.11074 -0.525128
0.0269524 -1.17059 -0.508234
0.0056074 -1.10034 -0.523338
0.00814359 -1.14283 -0.524515
0.0448035 -1.15372 -0.513335
0.0977546 -1.18993 -0.503693
0.0760166 -1.13715 -0.521245
0.0401706 -1.11756 -0.527575
0.0925914 -1.09549 -0.526867
0.125915 -1.16179 -0.504777
0.194864 -1.11301 -0.49882
0.166118 -1.09636 -0.500602
0.13291 -1.18202 -0.505773
0.166838 -1.1093 -0.498524
0.161229 -1.17723 -0.498951
0.109881 -1.13007 -0.509369
-0.0196895 -1.07912 -0.503226
0.0366627 -1.08043 -0.500876
0.0777253 -1.06524 -0.500853
0.0657436 -1.0837 -0.517067
0.00971014 -1.07116 -0.498379
0.0979409 -1.06812 -0.497389
-0.705101 -0.234222 -0.539852
-0.712213 -0.261473 -0.502762
-0.703679 -0.259425 -0.527681
-0.704647 -0.209888 -0.522259
-0.699708 -0.207162 -0.549866
-0.696665 -0.232854 -0.567583
-0.711108 -0.235986 -0.513497
-0.672521 -0.275066 -0.504049
-0.636572 -0.243652 -0.530661
-0.678359 -0.269201 -0.528259
-0.66961 -0.248734 -0.572084
-0.639816 -0.240974 -0.560591
-0.659317 -0.258028 -0.544955
-0.634002 -0.24662 -0.502156
-0.688989 -0.256704 -0.550699
-0.64747 -0.236218 -0.591268
-0.653259 -0.262367 -0.517629
-0.62091 -0.224315 -0.513336
-0.623804 -0.219716 -0.542005
-0.625416 -0.213535 -0.574114
-0.605687 -0.206034 -0.495881
-0.693865 -0.205446 -0.577465
-0.609902 -0.20034 -0.522566
-0.620054 -0.197278 -0.59367
-0.612293 -0.193749 -0.549688
-0.694193 -0.274519 -0.512796
-0.698761 -0.1329 -0.541477
-0.706843 -0.117298 -0.521437
-0.704191 -0.188635 -0.50321
-0.699207 -0.17927 -0.530531
-0.699721 -0.111017 -0.550292
-0.703256 -0.164573 -0.506882
-0.701006 -0.147875 -0.523649
-0.715899 -0.0937056 -0.51278
-0.690985 -0.109229 -0.579568
-0.612165 -0.185147 -0.575142
-0.688203 -0.181447 -0.586751
-0.597582 -0.181923 -0.504145
-0.693361 -0.18128 -0.561028
-0.599365 -0.175669 -0.529795
-0.6008 -0.168333 -0.555319
-0.688843 -0.158038 -0.574286
-0.694608 -0.155461 -0.54876
[...]
POINT_DATA 14290
SCALARS scalar float
LOOKUP_TABLE default
21278.4
20090.2
20870.9
20681.5
20198.9
22022
21777.7
21973.3
22250.6
22965.1
23719
24205
22148
22839.4
25252.3
23081.4
22541.4
23477.9
18436.7
19473.3
23654.1
25068.3
20858.4
25037.4
23509.8
23035
23133.8
24272.3
22745.4
25400.4
23934.3
24610
23027
24636.9
21716.4
22834.8
21253.2
22167.6
21310.1
20296.8
20631.9
21272.4
19764.1
21642.1
21460.1
19381
19040.8
21506.7
21487.8
21078.6
18778.9
21296.2
20497.3
18798.9
18630.8
21055
21455.6
19111.7
19300.7
19641.6
20441.1
21105
17690.3
21661.7
21463.3
19362.6
22310.1
21405.3
21933.5
30529.7
23809
27822.2
31469.1
32605.6
18941.3
19624.1
21761.9
23063.4
22158.9
22275.7
23072.9
23910.5
24915.1
25593
23876.7
24057.5
23446.4
19700.4
23503.6
22844.5
25400.2
23214.5
25519.9
26333.6
21957.8
24119.2
21770.3
26630
23363.9
25642.6
25508
25944.1
23374.8
24750.8
26111.9
24562.3
21019.6
22777.7
24910.8
23903.9
25726.2
23962.7
25282.5
23053.9
22252.6
22664.4
21457.8
22647
23584.6
23087.1
22679.6
23296.1
21695
21047.2
21502.6
20627.4
21638.6
22310
22682.3
22124.5
22378.2
20768.7
23255.6
21790.9
21377.2
22382.3
21659.9
22405.5
22159.8
20985.8
22391
23737.9
22142
22270.8
23469
23316.4
22961.7
22885.3
20576.3
22295.7
23031.1
23063
20185.6
22233.5
22841.1
20033.4
21242.8
21607
18482.1
21657
20455.8
21244.4
21822.6
21148.4
21917.4
20799
18686.2
21885.5
17426.1
20459.4
22160.3
20680.7
21471.4
23472.2
20328.5
19638.6
20387.4
21680
20886.5
21869.6
21758.8
20189.6
17986.4
18142
21404.4
21121.6
22049.3
20315.1
19575.9
18685.2
20153.1
18440.6
19268.1
22084.4
21235
24344
20282.2
32009.4
27603.2
32377.3
30062.7
23967.2
24700.9
32852
33135.5
11918.8
18742.7
17489.8
13514.9
14191.4
17326.9
4433.83
5059.2
7702.69
11137
9598.07
5251.97
5486.91
6576.34
5712.76
8142.4
9388.28
7121.98
8261.26
9776.83
9953.97
11465.7
10428.4
9164.12
11273.7
10216.1
9483.01
9693.11
9604.55
12120.1
11031.4
11521.1
13005.1
13105.9
9875.62
9484.28
9766.34
8995.91
9700.75
10041.7
10044.5
9361.54
9048.14
9185.86
8728.41
11553.5
11143
10117.7
9202.11
11390.9
10667.5
10950.8
9953.69
9554.36
10252.9
18392
18779.7
11969.7
16460.1
19106.5
22300.2
8981.07
9584.13
12273.6
21637.8
10239.7
23248.1
13844.4
11841.7
10764.6
13961.3
19935.9
19568.1
11910.2
23986
26965.8
11706.8
25250.4
11076.7
16401.6
23901.6
24401.3
19756.3
21660.7
24216.9
20234.3
20929.7
21802.7
21586.4
20851.3
20558.5
19194.5
22207.8
23243.6
19657.7
22200.9
18327
18150.9
20102.4
21108.6
19953.6
18206.5
21925.3
19946.9
18959.6
20128.5
21645.6
21672
20326.1
23046.9
20125.7
22142.4
21565.6
20978.7
20716.9
20384.5
21312.4
20354
20739.4
21675.2
22956.2
21814
24274
22139.1
21800.6
21148.4
21314.1
23812.5
21788.4
22278.2
22940.1
25120.3
22500.5
22814.3
20388.6
22335.9
21511
21706.6
21964.6
23712.6
21394.6
24121.4
22864.6
23009.7
19292.9
19794.1
23664.1
23494.2
21325.3
19774.9
19136.7
22497.9
20099.4
20755
21975.4
22563.5
23199.4
19244
22034
20256.1
19008.8
20261.9
21571.2
19417.3
21076.3
22722.3
22158.6
23948.1
21524.8
24298.2
23483.4
24170.1
22361
24161
23080.7
24316.1
23283.3
24142.8
22580.8
23261.7
23402.1
23853.7
23951.7
23957.5
24408.8
24010.5
24091
21548.8
21395.4
21655.7
21825
25012
24558.9
22902.5
23237.4
21824.2
21099.1
22112.6
21784.7
24022.4
21669.8
21264.7
23951
21345.2
23643.4
21420.7
23035.5
21679.7
25122.4
24897.8
21931.4
23326.6
22216.4
21363.2
21741.7
22239.2
21418.4
21956.9
21991.2
21658.9
23414.3
21728.2
22458.7
22456.1
14716.5
16349.9
17262.7
15760.7
19195.8
16246.1
16035.5
18441.8
17566.7
17748.4
19115.4
14684
19329.7
13758.7
15920
20232.6
15719.4
12980.5
13530.8
14473
18675.7
18937.6
13531.6
16103.2
19702.9
14469.4
14615.7
15956.5
15112.2
13223.4
17994.8
15024.3
16872.8
14269.4
13193.1
18679.7
19652.1
17472.8
17668
18245.4
4559.78
10337.7
6569.47
6852.31
11476.2
10163.3
9429.89
12229.4
11433.3
8292.41
11620.2
11599.6
10411.1
10925.9
10209.5
12248.5
8854.37
9313.2
9672.28
11245.6
11520
12299.5
12529
10288.8
12107.5
12004.9
11566.3
11539
12533.6
11482.9
10876.6
10715.1
11118.1
11066.9
10909.6
11417.3
9946.96
10315.5
11302.9
8940.21
11465.7
10234
11270.2
8084.55
10623.5
9441.53
11002.5
11216.9
10790.6
10320.8
11598.5
11952.4
8838.85
9446.94
11062.3
11708.6
11082.9
9257.48
7661.76
9032.13
10167.6
10753.6
9499.11
8761.21
9953.53
10275.9
9746.42
9631.14
12251.3
6251.99
9581.6
8980.21
7617.59
7819.36
6490.16
12573.8
10769.8
11033.4
11408.8
10012.2
11776.4
10129.5
10839.5
9258.95
11795.7
9248.73
10637.1
9721.78
10754.2
10777.8
10847
10105.6
10096.8
10249.7
12344
9381.46
10266.2
10385.8
10392.2
10825.3
9260.08
10131.9
8787.65
7871.27
10485.9
10230.8
9473.05
6683.91
8417.1
6157.04
10464.5
12125.2
9805.05
10013.5
10117.2
11056.7
8888.03
8971.34
13031
11234.9
10199.9
12892.7
11024.8
9867.61
11449.1
12118.8
8083.04
10531.1
9958.62
11462.4
11345
11519.7
11789.5
12419.6
10093
12483.8
11382.9
9859.65
12345.9
12513.4
12449.1
12385.6
12453.1
13509.8
13746.5
9373.94
13267.6
11179.4
12231.6
12691.7
12222.1
13065.3
12690.3
12288
12928.4
12568.6
12225
13541.1
12554.4
11804.5
8452.43
12158.4
12204.7
11635.2
12562.5
10918.7
10274.2
9119.74
10428.1
11096.3
11480.1
9346.1
11968.9
11854.8
11879.9
10540.8
11883.2
9527.22
11305
11939
11100.2
10739.3
10580.8
12144.7
11791.5
11390.8
11206.8
10951.2
11177.1
11385.7
10664.3
10934.1
10321.8
11461.6
10316.1
8776.06
11401.1
11172.2
12344.9
9641.55
11099.5
11192.8
11590.6
11947.7
11258.1
10635.2
12035.7
11910.9
10676.7
9320.16
10227.7
10246.8
10708.7
10418.7
9401.13
9379.18
9331.05
11115.9
11144.6
8936.14
10397.1
10985.4
9837.32
12380.3
10900.2
11831.2
12703.5
12241.8
12442.7
10157.8
10015.9
13078.1
11122.7
10416.2
11618.9
10720.2
8515.47
9588.71
10961.7
10135.9
8638.61
8408.01
9029.65
10378.7
11031.2
8491.18
9243.03
8869.84
8410.56
8776.38
11781.2
11468.4
10160.2
10642
12008.8
12785.3
11407.5
18655.6
11719.7
18967.1
12741.1
12189.8
11878.4
15475.1
11223.2
11028.7
16041.1
13553.5
19022.3
23690.2
20062.3
12466.1
19879.7
22745.2
10059.1
11505.9
11790.7
11927
12654
12230.9
10569.8
14425.6
9690.55
19048
16760.5
12740.3
10301.9
11340.7
15794.2
12742.2
14729.8
16818
10171.2
21096.6
10495.5
18843.4
10934.6
20525.7
13222.8
21451.7
9215.75
18108.4
10626.9
22154.7
9974.79
22957.2
15206.2
19249.6
20959
16214.3
10739
13219
9923.76
13498.3
11173.1
21124.6
20896.3
22464.8
23597.5
21463.2
23434.6
24764
22942.1
24092.6
23511.2
23356.8
21698.2
20936.2
21905.1
21470.1
22366
22059.9
22579.7
21886.7
20857.4
21770.2
22477.3
23309.8
21331.7
21677.7
21450.9
21752.8
21573.7
22419.8
20573.3
22080
23364
20472.8
22590.2
20862.3
22923.5
21036.8
21121.4
19805.2
19929.6
20407.9
21954.2
19824.5
22648.9
21113.8
24210.3
20074.8
20497.4
19021.7
23614.1
22782.3
22495.4
25995.8
20368
25391.6
26410.6
26932
22501.3
20073.7
22528.4
23689
23281.7
25882.8
24722.4
26264.3
22124.8
23680.4
19985.8
24562.7
21580.8
25957.7
22191.4
26061
24393.3
26241.8
23124.6
25548.2
21742.3
24301.6
23352.1
21237.8
22860.4
20718.4
22984.7
22064.3
22915.1
22189.6
25774.3
26080.5
22276.8
24000.6
23816.6
22403.3
23042.8
23577.6
23181.3
23988.4
24155.7
21258.8
21924.8
22853.5
20864.5
21350.3
21277.4
21167.4
20524.9
17858.9
19847.6
17808.8
17099.3
19248.6
21007.3
20734.6
23980.1
23177
21826.8
22135
22368.3
22170.7
20789.3
22270.7
21370
21602.2
21050.1
20012
21451.2
18740.1
20093
21045.8
22268.7
21129.4
21830.1
22336.7
23420.7
23156.7
22323.3
24731
22888
22449
24746.9
20683.8
21647.2
22197.4
23258.5
24153.1
21394.9
22741.2
24613.9
23626.8
22567.5
20423.1
19390.5
20209.1
20561.1
21190.9
22208.4
20821
22143.6
20644.1
19896.2
19586.1
20120.2
22545.9
18390.7
19325.9
20024
22000.1
20318.1
18335.4
19487.7
18052.2
22146.5
19444.8
21794.2
21791.4
17926.9
22777.7
18315.8
19833.5
20287.5
20371
18367
17809.7
19503.5
22585.1
19191.6
22044.7
21209.2
23329.9
21582
21295.5
21925.6
23321.8
24918.7
20804.7
20622.7
21012.5
20527.8
18985.6
22774.7
23086.7
22489.5
24640.2
23399.5
19873.4
25113.7
21073
24372.8
22794.7
20760.8
23074.2
22990.5
19878.1
22099
20920.3
21612.1
22817.9
22033.7
20603.8
20331.7
21560.1
23535.6
22879.4
23110.3
22908.4
23904.9
21424.2
21896
23697.2
18589.5
19905
20385
21726
21099.5
19687.5
20593.7
19265
21221.6
22228.2
21845
21998.7
22682.2
16663.9
14381.6
17582.7
15243.2
14851.9
13477.2
17234.8
14613.3
17216.5
16728.7
18138.8
16934
15937.7
19512.4
18117.2
18608.8
18666.4
17760.5
18036.1
16482.8
16329.5
17797
17875.8
14570.6
17795.1
15449.1
15965.2
16444.5
16271.1
14654
15282.8
14907.2
13632.9
14430
15510.8
14801.3
14806
15709.6
14549.7
14569.7
15038
15774.8
17041.6
19471.5
18447.2
18686.1
17146.3
17496.1
16787
13791.1
20219.7
20918.3
17140.3
19497.2
7103.37
8180.82
9919.23
9298.22
11618.6
10648.1
11403
11820.8
10417.8
12007.1
12549.4
12330.7
12075
9809.08
11739.6
12168.3
10289
12637.1
9411.02
12296.2
12581.4
8969.85
6608.93
10150.1
12830.6
10919.6
11919.2
10217.2
11080.4
11865.3
12733.9
11914.2
11668.1
7575.11
8958.71
9450.27
9427.91
7832.18
9094.82
7838.83
11509.7
10907.3
9146.96
10739.7
9630.5
8961.65
9380.39
10485.5
8049.85
10827.9
7872.63
12641.8
11542.6
12205
12561.4
10819
12155.8
12957.3
11637.6
12138.3
7195.76
12285.6
12219.7
10305.9
10598.4
13327.2
12253.5
9993.47
11483.3
10942.1
11318.5
11141.3
11063.5
11792.8
9364.56
10199.5
10547.2
8915.23
9512.13
8375.88
10969.9
11413.8
9183.61
9877.52
11858.3
8058.99
5958.51
7232.87
11358.2
12172.3
9403.36
8734.16
11239.2
10597.2
12748.9
12498.4
10565.7
13071.7
11984.1
12061.7
14245
12344.4
10837.2
12877
14353.8
13362.5
10051.2
12442.5
13595.5
11777
9311.69
10353.2
10647.2
11503.5
11222.2
9248.26
10837.4
10010.8
10518.5
13377.6
11743.9
11481.7
11334.2
12056.8
11987.5
12050.3
12757
11318.5
9417.12
11664
11030.3
13347.9
11911.4
12178.4
10369.9
12907.2
11687.3
12018.2
11664.2
11518.9
10791.4
11248.7
13016.4
13100.9
10442
10575.7
12455.9
12851.6
10522.9
10458.2
10674.5
7910.67
9047.72
10128.7
11744
10137.7
9548.33
10658.3
11295.2
11893.8
11171.2
10254.3
10161.7
9019.77
7645.96
10203.2
8843.83
11284
11267.8
12402.1
10502.8
12234.7
10902.1
10950.6
13277.4
13597
9475.98
12504.9
10366.3
11215.4
13479.5
11199.4
12917.3
8902.59
9369.6
11597.7
11063.1
12444
12459.3
11646
9688.55
12543.2
11941.6
11227
11467.7
9153.67
8091.79
12239.4
13149
9106.63
13725.2
13823.6
11549.2
12218.4
10822.4
11311.9
9855.01
13215.4
9808.71
11134.9
9955.55
12164.9
11120.4
12116.1
10498.1
10893
10623.3
10775.8
10145.9
9389.34
10675.7
11549.6
11210
11213.5
10751.4
12409.6
11643.6
12832.7
11612.2
13324.6
11309.1
11919.5
11420.4
11019.3
11335.9
11704.2
10938.6
12505.4
10525.4
11241
13822
10950.1
13640.6
11583.9
15191.1
10991.1
10243.4
15011.3
11239.6
10564.4
11416.4
10131.6
10327.4
12157.8
11102.7
11642.1
9613.29
9609.51
9545.04
11381
10072.3
8863.29
8929.58
10626.5
8798.32
8490.59
10748.7
10188.3
14133.9
11233.2
11747.4
13307.4
11306.1
14576.6
12504.5
11582.1
13337
12437.5
10488.8
13380.3
13419.9
12596.3
12090.6
12417.1
11629
9120.45
11631.9
10292.7
10404
10153.9
10592.2
10007.2
11504.3
10713.5
11119.5
8581.96
12116
10398.5
12173
9458.23
12536.8
13412.2
9181.38
13529.1
12329.6
13434.7
10144.3
11304.4
9418.79
10295.1
10961.7
10125.6
11512.8
12634.9
10557.4
10496.4
11322.1
9967.05
9530.87
19618.6
12848.4
22216.9
9087.04
14166.8
18243.8
20171.6
19235.2
21321.8
10970.6
10043.8
19805.5
11309.5
22904
11546.6
19082.1
18787
10516.3
12917.3
10072
13316.8
14862.4
20720.9
20566.2
10020.9
14720.6
10799.2
10695.2
24226.2
11676.9
21367.1
10802.4
16748.1
10202.9
13414.2
23508
9388.09
20460.2
11343.2
16421.6
20413.8
10037.4
15759.4
10610.2
9228.01
12331.1
20756.8
23998.5
16129.7
15171.5
19749.7
10950
22108.1
22596.3
20292
20286.4
21114.1
22341.9
22640.8
23677.2
23317.5
23444.7
24477.1
21787.2
22066.3
22457.3
22967.9
24665.5
22808.7
21331.7
20416
21391.4
21669.2
23991.7
21163.3
25038.4
19443.9
25973.7
19782.1
21236
20738.2
20779.5
21991.2
20051.2
19831.5
23128.6
23629.9
21878
22637.9
24005.8
23819.1
24566.7
23623.3
22668
23525.8
22154.9
23026.8
22527.3
24154.9
24393.4
24635.5
22249.1
24015.8
24247.1
25958.1
23164.5
26698.2
23323
25409.8
23905.5
25497.7
25996.2
25135.5
23203.4
24630.7
24901.6
24288.2
24640
25986.4
25666.3
23475.2
22461.1
22648.5
24316
22321.1
24050.8
25010.9
21773.5
23352.2
21651.8
21059.2
21914.7
22586.4
21519.2
22789.8
19805.2
23433.9
21874.3
19428.8
21455.3
20153
23280.4
22115.4
21226.6
22831.6
23162.3
22728.6
22960.8
22315.9
20958.1
23456
22405.8
22731.1
21479.6
19423.2
21886.9
20549.3
21464.1
20898.9
20475.3
22587.3
18625.2
19622.5
23014.7
21688.9
23252
20135
18562
19755.8
21596
20482.1
21446.4
23096.9
21562.8
22109.6
22579.8
22432.4
21823.8
22031.3
21852.7
20270.2
17911.2
22824.8
23010.3
18845.4
23457.8
23590.9
22764.4
23858.9
21684.3
23218.6
20298.9
21644
22912.1
23578.4
22562.5
20934.1
22815.4
22232.1
22808.6
22748.4
23425
21940.4
22557
21412.9
21920.8
22683.3
22083.3
21424.8
21727.2
21426.7
21587.5
23487.2
22320.1
21255.9
20961.2
22780.7
22140.7
22051.3
21631.4
22424.4
21096.7
22147.9
20393.2
20994.4
21380.4
20144.7
22469.7
22708.7
22293.8
22270
22152.8
23921
23587.8
23763.2
21758.2
19817
21776.3
21513.7
24246.8
24106.4
23360.2
22916.3
21398.8
24209.4
24469.2
22553.6
23157.4
22309.2
22408.4
22684.5
23350.6
21333.1
19272.5
21078.7
22418.9
22408.8
19747.2
18256.3
18336.7
18548.7
20071.1
20961.9
21840.1
21188.6
23339.9
23161.8
22171.7
21181.1
22417.2
23261
21720.6
21355.3
21271.3
21592.1
19980.6
19343.6
21344.2
22302.8
22899.3
23053.9
24033
23323.9
24400.1
17782.8
18629.6
19257.7
19670.7
19462.6
20282.7
21915.7
20672.3
21770.8
21279
18020
17971.9
18775.6
18354.9
19366.3
19714.4
19869.8
18988.2
19117.4
19542
20106.5
20025.9
20522.7
19485.2
19410.2
21352.8
19992.5
19888.8
19918.5
20298.9
19750.9
20491.5
21041
18813.5
19656.8
25830.6
25169.5
26188
24883.5
22798
27042
27253.8
25290.9
23256
26110.1
27403.4
26717.1
25865.3
23138.1
23727.7
22806.9
21883.6
21111.4
20364.4
23706.5
24312.1
24333.3
20772.5
19724.6
20801.6
24012.9
22940.1
20703
21663
20910.3
18195.4
21886
15134.6
21737.2
12434
19489
21357.7
19827.8
17015.9
22868
22150.7
19846.4
23257.9
17962
22859.4
20653.8
22527.2
42949.6
51369.1
51620.2
42347
25582
35965.7
33429.4
46092.8
49978.2
41450.5
29873.7
35377.3
46790.7
40706.3
53274.5
50448.7
16721.7
15750.3
17067.6
15621.6
18185.1
16470
16908.4
16030.1
17870.4
17826.8
17846.5
14044
18403.2
19013.2
17821.2
18778.3
18253.2
20352.5
19954
19964.9
19507.4
19991
18888.3
20108.7
18490
18210.3
20375.8
18460.9
18553.6
18531.5
17565.7
18743.6
19172.6
17809.3
17660.2
18848.8
17948.2
15055.4
16475.3
16059.2
16466.7
15260.5
16185.3
16194.5
14929.2
15820
15260.1
15637.1
14186.3
14781
15594.4
14637.6
14747.4
16184.8
15922.1
15570.8
14935.9
16056.1
17653.8
17847.2
16867
15327.1
15878.6
15527.7
11730.7
14834.6
15417
16876.4
14455.4
14011.1
15122.5
4819.63
6857.23
5831.89
10490.3
9643.42
7139.21
11672.9
12854.9
11761.7
11649.9
8998.3
13437.9
12336.5
13779.2
13210.9
13132.7
13291.9
13829.7
11840.6
8639.91
13053.1
11131.1
11432.2
11950.8
11587.8
11099.4
9463.61
11424
10869.6
6791.36
11541.9
9287.39
12087.9
8780.79
9555.18
7336.24
11636.9
11227.1
10890.3
11120.9
10000.4
8942.18
12756
13757.5
8697.73
13161.8
10889.8
11810.5
10779.5
10563.1
11722.5
7880.19
7598.27
9271.76
10289.5
7045.53
9032.47
9730.19
12909.8
4094.73
6573.71
7803.84
8973.43
11390.9
8340.83
7546.24
10798.4
10265.4
10657.8
11752.1
10271.4
8601.5
10197.9
7299.13
8904.75
9656.3
8104.34
8875.4
12033.9
12726.8
10469.9
10599.6
10837.7
11425.1
8847.11
9586.84
10871.1
12943.1
11349
11710.7
13153.2
11866.2
10565.6
11169.9
11145.2
8123.94
11272.9
12183.3
11024.4
11755.5
11662.2
12287.4
11314.4
11842.8
10139.6
11523.3
11822.2
12392.2
11884.6
12912.2
12058
12135.6
11812
10631.8
12946.9
8105.92
8509.51
12159.1
10669
10084
13457
11484.9
12547.6
10658.2
11955.1
10947.8
11442
9440.12
11026.6
11035.3
11369.7
10885.3
12783.1
11218.3
10915.2
8542.75
11491.1
11105.3
11324.4
8375.22
10781.8
10362.4
11591
11233.7
11555.1
11729.8
12182.3
12084.5
10984.9
11058.6
10494.8
10920.6
11073
11270.2
13344.1
12413.3
12578
11827.1
11464.5
13368.6
12018.9
13443.6
13225.1
10257.9
11910.4
9643.76
11293.9
12279.2
10832.6
10954.5
11529.6
11238.7
11979.4
9270.02
10648.1
11144.7
10190.8
11018.4
13341.9
11632.2
11585.2
10683.1
11452.6
11629.1
8839.12
10380.1
11472.1
11515.4
9002.85
12505.1
10050.6
11529.2
10536.1
10880.1
12567.3
9768.61
11219.1
9738.46
8053.11
9606.33
9127.38
8174.05
12714.4
11427
9204.37
10145.3
12135.2
9422.38
10548.9
10138.8
12087.3
10434.5
11285.2
9498.27
10603.7
10381.7
10387.7
9193.01
10759.6
11424
11081
12187.8
12125.8
12619.1
11862.5
9179.83
11176.7
12606.4
11572.2
10268.3
11024.2
10461.5
10352.7
10862.4
11618.5
13596.1
11768.6
9989.79
12447.9
9791.44
12572
10739.4
11851.7
13229.2
9590.07
12252.9
9858.47
11320.4
11885.6
11511.2
10297.5
11615.1
10918.7
11089.7
12061.6
11720.7
10810
11219.2
10641.8
8001.94
10415.2
8685.78
8111.62
10556.9
10061.7
10079.6
10161.3
9168.62
8961.26
9184.5
10239.9
9136.85
8465.53
8521.09
9024.14
8178.79
12304.7
8169.18
8284.51
8880.09
8522.34
11295.9
12259.5
11345.6
10978.1
10313.3
10875.6
11060.3
8701.92
11383.7
10750.7
10950.1
10617.3
10719.2
9356.73
7872.91
9148.38
9316.17
9528.7
8693.86
10544.5
11892.9
11714.2
11322.7
9827.23
9728.36
9582.15
10347
10588.3
9834.64
9135.16
12312.7
9190.15
9880.82
12640
11940.4
10955.2
9955.49
10037.8
10533.9
8714.91
11248
11724.4
8775.48
9427.23
9580.29
11738.6
20180.3
11742.7
10027.5
9278.5
20716.2
18003.4
14569
21377.6
13661.1
20436.9
11654.7
9041.79
22484.5
21579.5
10943.4
24347.3
17078.4
13408.2
14468.2
10435.6
22095.6
12102
19167.8
10222.5
12472.7
8705.14
15117.1
12649.2
11899.1
17445.6
13654.2
22055.4
10238.2
10554.8
11394.1
18128
19241.1
11401.6
9010.32
19933.7
16623.9
22393.5
19200.2
21942.3
17938.3
19471.8
14451.6
11582.6
11422.2
11277.4
20565.2
13116.6
10524.6
21701.7
21211.6
14253.4
12285.7
11663.9
23731.2
10408.5
21560.7
9380.35
18015
13882.1
9442.23
11741.7
23729.9
13429.3
24166.9
20779.6
17567.3
19883.4
13707.5
22514.9
13870.7
17983.7
22308.4
24275.8
23909.6
22925.9
25430.7
23600.6
19744.4
21496.8
20139.8
21425.8
23302.9
22432.5
22003.4
24810.3
24450.5
21317.6
22416.6
22023.9
21171.6
20531.8
22702.2
21231
23653.2
24415.9
23811.4
22230
23765.4
22404.7
22551.7
23426.3
22382.8
23556.7
22240.8
21398.7
21154.5
21187.9
22286.7
20493.5
22386.8
20057.1
24736.4
20676
22455.7
22574.1
20110.8
23327.4
20932.1
21641.8
25355.7
21383.4
21022.9
23335
20986.6
19063.8
24152.5
23951.2
22137.9
21831
20036.1
21763.9
22848.5
22834.1
23706.4
22849.3
21401.9
24261.8
21519.4
24023.3
24581.2
25627.2
23788.1
21457.9
19416.3
21509.9
22523.2
25502.1
22020.5
24578.6
21681.3
18750.4
20341
23781.3
19677.2
23809.3
23707.1
20522.6
20709.6
18753.9
20373.6
22203.3
19241.5
22157.2
18441.1
20169
20459.8
22987.6
24287.9
22764.9
22236.9
22337.2
21692.5
23043.6
19999.6
23557.1
20079
20705.1
22390.9
19114.6
22517.2
20772.3
24108.5
20840.6
21392.2
21333.9
21249.9
21809.5
21584.6
20811.8
20971.1
21829.2
22266.5
21487.8
20872
23390.1
22882.4
23259.3
24700.7
21751.7
21612
24410.2
20880.3
20828.2
22580.7
20078.4
18110.5
21271.5
18078.3
19200.8
18919.2
21832.3
22228.7
19663.9
20394.4
23076
21553.6
23251.7
23800.1
20082
20610.3
20855.5
18796.5
20895.1
21539.5
19194.2
18876.1
23441.1
22205.8
21531.1
21502.6
23119.6
21777.3
21566.4
23992
24461.9
21315.4
22505.1
23305.8
23101.3
23479.7
21507.8
23942.2
22185
23243.1
21646
23523.2
21536.5
21456.9
22450.4
23151.7
22912.7
21301.7
22111.2
22710.7
22925.5
23256
22683.3
22487.4
22459.2
22125.2
22072.4
18394.9
19684.7
19208.9
21957.4
19653.9
22549
19251.4
20073.7
22528.1
19988.5
21207.9
19638.6
20231.3
21602.4
20319
20362.2
19836.9
21475.5
21552.3
21098.5
20974.4
21570.7
21467.2
19066.8
21049.7
19751.7
20717.3
20894.5
19178.1
20182.7
21554.2
21315.2
20943.6
19951.2
20725.6
19809
20836.8
20943.1
18880.7
19425.3
20311.3
20300.2
19695.6
19606.2
19589.3
20804.2
20440.1
19605.1
19677.7
22348.6
21980.6
21248
21546.8
22954.2
21352.3
22051.1
21940.5
20096.2
21482.8
19507
20774.8
22250.4
21116.4
20168.5
19554.6
19927.1
17773.3
18271.1
18716.1
23903.3
23344.2
20593.3
22970.2
21696.8
23346.3
22122.6
22813.8
22588.4
23907.1
22585.8
22001.3
19342.5
21602.7
22679.6
21899.1
21938.7
19799.4
23159.4
21272.8
22382.6
23383.9
22788.2
20592.1
22502.1
20720.3
22966.4
21243.5
22158
22135.7
20009.5
22639
23484.5
21506.5
20776.3
23710.9
23318.1
22488.9
23810.1