# vtk DataFile Version 3.0
Happy Go Lucky
ASCII
DATASET POLYDATA
POINTS 14290 float
-0.605372 -0.343796 -0.696348
-0.636177 -0.339817 -0.708581
-0.608617 -0.32697 -0.719533
-0.632095 -0.312074 -0.725874
-0.650741 -0.309048 -0.701797
-0.609706 -0.308367 -0.733497
-0.589601 -0.314732 -0.697961
-0.593302 -0.310334 -0.72391
-0.593119 -0.294184 -0.740113
-0.580948 -0.291732 -0.717317
-0.642911 -0.285855 -0.717865
-0.621482 -0.285556 -0.740322
-0.597534 -0.242931 -0.760646
-0.644729 -0.242908 -0.712789
-0.6292 -0.208418 -0.742944
-0.609714 -0.202317 -0.762165
-0.660881 -0.191388 -0.696826
-0.642029 -0.187224 -0.728781
-0.632809 -0.235276 -0.735119
-0.615608 -0.227588 -0.754188
-0.643907 -0.215441 -0.718481
-0.59739 -0.220748 -0.764768
-0.59667 -0.269749 -0.75307
-0.646414 -0.264843 -0.708613
-0.636462 -0.261762 -0.728324
-0.619374 -0.254528 -0.748728
-0.575366 -0.272897 -0.737194
-0.575236 -0.264754 -0.711555
-0.573929 -0.25203 -0.755549
-0.57027 -0.246605 -0.730889
-0.572791 -0.237142 -0.706966
-0.567729 -0.231102 -0.746781
-0.577296 -0.227562 -0.765672
-0.569067 -0.219772 -0.727483
-0.573396 -0.20872 -0.702731
-0.566637 -0.207811 -0.751116
-0.584106 -0.20209 -0.771595
-0.571287 -0.187653 -0.726969
-0.703505 -0.10373 -0.700275
-0.596935 -0.108721 -0.758631
-0.680085 -0.106826 -0.718787
-0.638335 -0.164258 -0.740767
-0.654515 -0.161864 -0.720248
-0.674079 -0.155304 -0.697015
-0.623331 -0.152928 -0.758574
-0.645294 -0.138353 -0.741057
-0.598372 -0.137529 -0.76901
-0.666735 -0.134998 -0.717777
-0.688676 -0.128786 -0.698717
-0.623341 -0.124429 -0.759878
-0.598685 -0.172265 -0.771279
-0.595993 -0.120746 -0.703633
-0.603767 -0.100368 -0.713833
-0.622124 -0.0990689 -0.757714
-0.663698 -0.0940262 -0.742079
-0.624728 -0.181318 -0.752348
-0.660273 -0.117652 -0.733455
-0.644316 -0.109732 -0.749811
-0.567994 -0.178823 -0.758732
-0.577618 -0.130112 -0.748084
-0.576036 -0.161484 -0.714032
-0.572559 -0.157277 -0.738319
-0.574372 -0.15213 -0.764384
-0.590188 -0.112742 -0.729241
-0.581348 -0.137303 -0.719925
-0.57649 -0.179658 -0.696269
-0.707279 -0.0806415 -0.724316
-0.597772 -0.0853403 -0.741746
-0.635343 -0.0768289 -0.754385
-0.675971 -0.0725337 -0.723081
-0.615485 -0.0718808 -0.711157
-0.652134 -0.0669418 -0.729344
-0.655055 -0.0660732 -0.701889
-0.681943 -0.061961 -0.696045
-0.688224 -0.397047 -0.599112
-0.640811 -0.392191 -0.655801
-0.620524 -0.390065 -0.615622
-0.682834 -0.424502 -0.59726
-0.656646 -0.421388 -0.619783
-0.63122 -0.411362 -0.605289
-0.635669 -0.404918 -0.632158
-0.680383 -0.402644 -0.62022
-0.662207 -0.401911 -0.64177
-0.677137 -0.379683 -0.634994
-0.664449 -0.379482 -0.658174
-0.682844 -0.378263 -0.610478
-0.620731 -0.377916 -0.666069
-0.678509 -0.314266 -0.619725
-0.61008 -0.368302 -0.623265
-0.610934 -0.373344 -0.598848
-0.684343 -0.296204 -0.605042
-0.677777 -0.294679 -0.625187
-0.662354 -0.30135 -0.670007
-0.645553 -0.374879 -0.675704
-0.672016 -0.30971 -0.641864
-0.683784 -0.316555 -0.600773
-0.667492 -0.331701 -0.658563
-0.674761 -0.333893 -0.633685
-0.680683 -0.334906 -0.610783
-0.625515 -0.363685 -0.689615
-0.606542 -0.356345 -0.671248
-0.648865 -0.356066 -0.690031
-0.678456 -0.356503 -0.622766
-0.663522 -0.356215 -0.671626
-0.620588 -0.384841 -0.640551
-0.67249 -0.356268 -0.647271
-0.683761 -0.355705 -0.598814
-0.6009 -0.349862 -0.606186
-0.60054 -0.345022 -0.65332
-0.609114 -0.363624 -0.647597
-0.600501 -0.346081 -0.631858
-0.658588 -0.332764 -0.685597
-0.595323 -0.332051 -0.671359
-0.593186 -0.32566 -0.645502
-0.587217 -0.305211 -0.636884
-0.591558 -0.322444 -0.616647
-0.586024 -0.302424 -0.664113
-0.585553 -0.292713 -0.61718
-0.732809 -0.189569 -0.595744
-0.714356 -0.194018 -0.613566
-0.696797 -0.201952 -0.633087
-0.700874 -0.217403 -0.61384
-0.695693 -0.254174 -0.597167
-0.672563 -0.282311 -0.643062
-0.67743 -0.253336 -0.63855
-0.664065 -0.263449 -0.666771
-0.654657 -0.226416 -0.694758
-0.683743 -0.2711 -0.615886
-0.686159 -0.226622 -0.634926
-0.66185 -0.238841 -0.676654
-0.690776 -0.242238 -0.615448
-0.676245 -0.195679 -0.670004
-0.606262 -0.192472 -0.598413
-0.596954 -0.192499 -0.623453
-0.691601 -0.186449 -0.652792
-0.681059 -0.210432 -0.653245
-0.667367 -0.216472 -0.674476
-0.653688 -0.252853 -0.69172
-0.672264 -0.234773 -0.657047
-0.653388 -0.279781 -0.692711
-0.593517 -0.211127 -0.606913
-0.575632 -0.22783 -0.682156
-0.580763 -0.283609 -0.690444
-0.584936 -0.234232 -0.613031
-0.581763 -0.239523 -0.638714
-0.579325 -0.24571 -0.662906
-0.576698 -0.255181 -0.686646
-0.586332 -0.195025 -0.649375
-0.581169 -0.271557 -0.665408
-0.581552 -0.260295 -0.646027
-0.583044 -0.262816 -0.62062
-0.577671 -0.200559 -0.675915
-0.579754 -0.220318 -0.656886
-0.585691 -0.214881 -0.631464
-0.583255 -0.282467 -0.641685
-0.760194 -0.135034 -0.638587
-0.740634 -0.132133 -0.653413
-0.71952 -0.138426 -0.662513
-0.782918 -0.133442 -0.616737
-0.7113 -0.122598 -0.682555
-0.696376 -0.145837 -0.677722
-0.731801 -0.152199 -0.638625
-0.757422 -0.154597 -0.618101
-0.733737 -0.116818 -0.669601
-0.779163 -0.156592 -0.598334
-0.704934 -0.161258 -0.655738
-0.757378 -0.112954 -0.655849
-0.768126 -0.10937 -0.595592
-0.77368 -0.106579 -0.629968
-0.723683 -0.0960369 -0.684494
-0.732888 -0.172194 -0.615111
-0.717059 -0.0958933 -0.608079
-0.711383 -0.177161 -0.634009
-0.754637 -0.173297 -0.597415
-0.607333 -0.125223 -0.67933
-0.623226 -0.124553 -0.655108
-0.643433 -0.121143 -0.634388
-0.665941 -0.115611 -0.618803
-0.624452 -0.109352 -0.673476
-0.690858 -0.106818 -0.609875
-0.660312 -0.105572 -0.63865
-0.6338 -0.155472 -0.599116
-0.603048 -0.147269 -0.659939
-0.621891 -0.145086 -0.629524
-0.613887 -0.104122 -0.693297
-0.644937 -0.102655 -0.658576
-0.680248 -0.0979893 -0.63129
-0.612992 -0.171894 -0.612792
-0.682896 -0.172186 -0.674721
-0.600618 -0.170791 -0.640679
-0.648639 -0.133958 -0.609444
-0.58724 -0.173274 -0.668819
-0.587398 -0.148199 -0.690869
-0.753022 -0.0854731 -0.606225
-0.765132 -0.0852792 -0.642023
-0.697461 -0.0835645 -0.610234
-0.754179 -0.0827189 -0.67365
-0.696745 -0.076531 -0.645854
-0.725957 -0.0755733 -0.635224
-0.707501 -0.0737233 -0.692342
-0.717121 -0.067904 -0.668174
-0.622501 -0.0850477 -0.674963
-0.657339 -0.0800159 -0.639083
-0.66169 -0.0747114 -0.675926
-0.689342 -0.0655497 -0.670894
-0.208535 -1.78639 -0.529307
-0.176464 -1.78732 -0.496586
-0.128561 -1.78814 -0.512269
-0.0333837 -1.79517 -0.513313
-0.0798228 -1.78652 -0.526064
-0.0784745 -1.7944 -0.499586
-0.398241 -1.78616 -0.500895
-0.30143 -1.78562 -0.536195
-0.338473 -1.78585 -0.500204
-0.232024 -1.78565 -0.497763
-0.267312 -1.78636 -0.500944
-0.245972 -1.78588 -0.548802
-0.12106 -1.78551 -0.550127
-0.172513 -1.78591 -0.541635
-0.0290079 -1.78612 -0.544895
0.0503685 -1.7849 -0.512562
0.0936459 -1.78441 -0.502241
0.0220485 -1.7861 -0.524067
0.140256 -1.78597 -0.503184
-0.0332739 -1.59474 -0.499309
0.0166966 -1.6328 -0.500694
0.0585603 -1.59629 -0.502029
0.00579481 -1.60254 -0.507102
-0.0949555 -1.50308 -0.504737
-0.00499538 -1.51741 -0.517765
-0.035328 -1.52778 -0.516077
-0.0696845 -1.52936 -0.501885
-0.0529085 -1.49876 -0.526717
-0.0189012 -1.4899 -0.521248
0.010321 -1.54088 -0.507703
0.0110631 -1.57762 -0.500213
0.0291404 -1.50994 -0.509394
0.0350575 -1.54966 -0.499116
0.061781 -1.56343 -0.49781
0.138583 -1.58335 -0.498281
-0.117741 -1.38685 -0.497292
-0.106647 -1.42821 -0.521933
-0.111406 -1.46147 -0.510726
-0.098066 -1.39355 -0.51629
-0.131485 -1.42181 -0.497607
0.00278701 -1.4185 -0.523977
-0.0836254 -1.47677 -0.527218
-0.0671533 -1.44717 -0.534939
-0.0637569 -1.41369 -0.53441
-0.0305092 -1.43164 -0.523891
0.0482103 -1.41507 -0.515854
0.0887703 -1.4063 -0.509432
0.0192351 -1.447 -0.523294
0.097588 -1.47959 -0.504313
0.0785796 -1.42625 -0.517066
0.0531965 -1.4531 -0.52318
0.0271099 -1.40684 -0.517336
0.066618 -1.48445 -0.511389
0.114476 -1.44958 -0.513061
0.128202 -1.42417 -0.507337
-0.120363 -1.29004 -0.502114
-0.158704 -1.31192 -0.501189
-0.121766 -1.32069 -0.506128
-0.0471913 -1.31805 -0.526798
-0.067903 -1.30272 -0.505238
-0.0215218 -1.38011 -0.524353
-0.0537362 -1.37453 -0.532477
-0.0473645 -1.34487 -0.535905
-0.0230133 -1.31043 -0.527112
-0.0873342 -1.32781 -0.516407
-0.0886826 -1.34843 -0.517378
0.00492643 -1.30217 -0.527482
0.0269532 -1.36665 -0.508231
0.0761131 -1.33487 -0.521521
0.00804981 -1.33987 -0.524771
0.0400006 -1.31719 -0.529318
0.0935462 -1.29709 -0.532551
0.0977546 -1.38593 -0.503693
0.044776 -1.35033 -0.51335
0.125913 -1.35803 -0.504804
0.195089 -1.31336 -0.500505
0.16725 -1.29896 -0.505302
0.167537 -1.31087 -0.500331
0.132908 -1.37802 -0.505773
0.109902 -1.32894 -0.509879
0.161227 -1.37327 -0.49895
0.225473 -1.31608 -0.496093
-0.0983334 -1.21786 -0.49685
-0.10078 -1.25848 -0.49688
-0.00987003 -1.22996 -0.499782
-0.068634 -1.25586 -0.498228
-0.0672065 -1.20428 -0.501545
-0.0238804 -1.27917 -0.514834
-0.0192312 -1.25824 -0.511848
-0.0409705 -1.22177 -0.49658
0.00999295 -1.26391 -0.515689
0.0652049 -1.28299 -0.527603
0.0742646 -1.21921 -0.509009
0.0135154 -1.23503 -0.501045
0.0419174 -1.22205 -0.500436
0.0375857 -1.28163 -0.509651
0.0820121 -1.24572 -0.520462
0.0477332 -1.19688 -0.502103
0.180883 -1.26651 -0.496116
0.10501 -1.24819 -0.513182
0.151235 -1.2664 -0.497213
0.120063 -1.26296 -0.49721
0.0482337 -1.16428 -0.495712
-0.712213 -0.457471 -0.502762
-0.703679 -0.455423 -0.527681
-0.704647 -0.405887 -0.522259
-0.699708 -0.403161 -0.549866
-0.696665 -0.428853 -0.567583
-0.711108 -0.431984 -0.513497
-0.705101 -0.43022 -0.539852
-0.66961 -0.444732 -0.572084
-0.639816 -0.436973 -0.560591
-0.659317 -0.454026 -0.544955
-0.634002 -0.442619 -0.502156
-0.688989 -0.452703 -0.550699
-0.64747 -0.432217 -0.591268
-0.653259 -0.458366 -0.517629
-0.62091 -0.420313 -0.513336
-0.623804 -0.415715 -0.542005
-0.625416 -0.409534 -0.574114
-0.605687 -0.402033 -0.495881
-0.693865 -0.401444 -0.577465
-0.609902 -0.396341 -0.522566
-0.620054 -0.393278 -0.59367
-0.612293 -0.389748 -0.549688
-0.694193 -0.470518 -0.512796
-0.672521 -0.471066 -0.504049
-0.636572 -0.439652 -0.530661
-0.678359 -0.4652 -0.528259
-0.704191 -0.384633 -0.50321
[...]
POINT_DATA 14290
SCALARS scalar float
LOOKUP_TABLE default
21278.6
20090.4
20871
20681.7
20199.1
22022.2
21777.9
21973.5
22250.7
22965.3
22148.1
22839.5
25252.3
23081.4
22541.3
23477.8
18436.6
19473.2
23654.1
25068.2
20858.4
25037.4
23509.9
23035.1
23719.1
24205
23133.9
24272.4
22745.4
25400.4
23934.3
24609.9
23026.9
24636.8
21716.3
22834.7
21253.1
22167.5
21310.1
18778.9
21296.2
20497.2
18798.8
18630.8
21054.9
21455.6
19111.7
20296.7
20631.8
21272.4
19764
21642.1
21460.1
19381
19040.8
21506.6
21487.7
21078.5
19300.6
19641.6
20441.1
21104.9
17690.2
21661.7
21463.2
19362.5
22310.1
21405.3
21933.5
30529.7
23809
27822.2
31469.2
32605.6
23073.1
23910.6
24915.2
18941.4
19624.2
21762.1
23063.5
22159
22275.8
24911.1
23904.1
25726.5
23962.8
25282.6
25593.1
23876.7
24057.6
23446.5
19700.5
23503.7
22844.6
25400.4
23214.7
25520.1
26333.8
21958
24119.3
21770.4
26630.3
23364
25642.8
25508.2
25944.3
23374.9
24750.9
26112
24562.4
21019.8
22777.9
23054
22252.8
22664.4
21458
22647.1
23584.5
23087.1
22679.6
23296.1
21695.1
21047.3
21502.7
20627.4
21638.6
22310.1
22682.3
22124.5
22378.3
20768.7
23255.6
21790.9
21377.2
22382.3
21659.9
22405.5
22159.9
20985.8
23738
22142
22270.9
23469.1
23316.5
22961.7
22885.3
20576.2
22295.8
23031.2
23063.1
20185.5
22233.5
22841.1
22391.2
20033.4
21242.8
21607
18482.1
21657
20455.7
21244.4
21822.6
21148.4
21917.4
20798.9
18686.2
21885.5
17426.1
20459.4
22160.2
20680.7
21471.4
23472.2
20328.4
19638.6
20387.3
21680
20886.4
21869.6
21758.8
20189.6
17986.4
18141.9
21404.4
21121.6
22049.3
20315
19575.8
18685.2
20153
18440.6
19268.1
22084.4
21235
24344
20282.2
32009.4
27603.2
32377.3
30062.7
23967.2
24700.9
32852
33135.6
11918.8
18742.7
17489.8
13514.9
14191.4
17326.9
4433.83
5059.2
7702.69
11137
9598.07
5251.97
5486.91
6576.34
5712.76
8142.4
9388.28
7121.98
8261.26
9776.83
9953.97
11465.7
10428.4
9164.12
11273.7
10216.1
9483.01
9693.11
9604.55
12120.1
11031.4
11521.1
13005.1
13105.9
9875.62
9561.42
9767.55
8995.91
9752.37
10047.5
10056.4
9361.54
9048.22
9192.45
8729.09
11575.2
11187.7
10118
9202.11
11396.2
10667.6
10988.7
9953.69
9554.69
10258.6
10868
9841.94
10566.7
11651.2
11040.8
9086.44
9657.68
10515.2
11946.8
11047.3
10507.2
11882.7
10057.4
9485.54
10539.4
10762.4
8953.04
10895.6
10218.7
11224.4
11407.4
12549.7
11810.6
11814.4
9763.98
11166.2
10688
10476.1
10632
12154.4
9803.9
10306.6
12342
12352.4
11093.8
12514
10257.8
10566
12301.5
11319.4
11263.6
10415.7
10788.7
14479
10870.3
13990.7
12362.4
11099.7
21802.6
21586.3
20851.4
20558.6
19194.5
22207.7
20929.8
18327
18150.9
20102.5
21108.7
19953.6
18206.5
21925.3
19947.1
18959.6
20128.6
21645.8
21672.1
20326.2
23047
20125.7
22142.4
23243.6
19657.7
22200.9
20717.1
20384.7
21312.5
20354.1
20739.5
21675.3
21565.7
20978.8
21148.5
21314.2
23812.8
21788.5
22278.3
22940.2
25120.5
22956.3
21814.1
24274.2
22139.2
21800.7
22500.6
22814.5
20388.7
22335.9
21511.1
21706.7
21964.7
23712.7
21394.7
24121.5
22864.7
23009.9
19292.9
22563.6
23199.4
19244.1
22034
20256.2
19008.9
20262.1
21571.3
19417.4
21076.4
19794.1
23664.1
23494.2
21325.3
19774.9
19136.7
22498.1
20099.5
20755.1
21975.4
22722.4
22158.6
23948.2
21524.9
24298.3
23483.5
24170.1
22361.1
24161
23080.8
24316.2
23283.4
24142.8
23957.6
24408.9
24010.6
24091.1
22580.9
23261.8
23402.3
23853.8
23951.8
21548.8
25122.3
24897.8
21931.4
23326.6
21395.3
21655.7
21825
25011.9
24558.8
22902.4
23237.4
21824.2
21099.1
22112.6
21784.6
24022.4
21669.8
21264.8
23951
21345.2
23643.3
21420.7
23035.5
21679.7
22456.2
22216.4
21363.2
21741.7
22239.2
21418.4
21956.9
21991.1
21658.9
23414.3
21728.2
22458.6
14716.5
15760.7
16349.9
17262.7
19195.8
16246.1
16035.5
18441.8
17566.7
17748.4
19115.4
14684
19329.7
13758.7
15920
20232.6
14473
15719.4
12980.5
13530.8
18937.6
13531.6
16103.2
19702.9
18675.7
14615.7
15956.5
15112.2
14469.4
14269.4
13193.1
13223.4
17994.8
15024.3
16872.8
18679.7
19652.1
17472.8
17668
18245.4
4559.78
10337.7
6569.47
6852.31
11620.2
11476.2
10163.3
9429.89
12229.4
11433.3
8292.41
11599.6
10411.1
10925.9
10209.5
12248.5
8854.38
9313.2
9672.28
11539
12533.6
11245.6
11520
12299.5
12529
10288.8
12107.5
12004.9
11566.3
11482.9
10876.6
10715.1
11118.1
11066.9
10909.6
11417.3
9946.96
10315.5
11302.9
8940.21
11465.7
10234
11270.2
8084.55
10623.5
9441.53
11002.5
11216.9
11082.9
10790.6
10320.8
11598.5
11952.4
8838.85
9446.94
11062.3
11708.6
9032.13
10167.6
10753.6
9499.1
8761.21
9953.53
9257.48
7661.76
10275.9
9746.42
9631.14
12251.3
6251.99
9581.6
8980.21
7617.59
7819.36
6490.16
12573.8
10769.8
11033.4
11408.8
10012.2
11776.4
10129.5
10839.4
9258.96
11795.7
9248.73
10637.1
9721.78
10754.2
10777.8
10847
10105.6
10096.8
10249.7
12344
9381.46
10266.2
10385.8
10392.2
10825.3
9260.08
10131.9
8787.65
7871.27
10485.9
10230.8
9473.05
6683.91
8417.1
6157.04
10464.5
9805.06
10013.5
10117.2
11056.7
8888.03
8971.34
12125.2
12892.7
11024.8
9867.61
11449.1
12118.8
13031
11234.9
10199.9
8083.04
10531.1
9958.62
11462.4
11345
11519.7
11789.5
12419.6
10093
12483.8
11382.9
9859.65
13509.8
13746.5
9373.94
13267.6
11179.4
12231.6
12345.9
12513.4
12449.1
12385.6
12453.1
12554.4
11804.5
12691.7
12222.1
13065.3
12690.3
12288
12928.4
12568.6
12225
13541.1
8452.43
12158.4
12204.7
11635.2
12562.5
10918.7
10274.2
9119.74
10428.1
11096.3
11854.8
11879.9
10540.8
11883.2
9527.22
11305
11480
9346.1
11968.9
11939
11100.2
10739.3
10580.8
12144.7
11791.5
11390.8
11206.8
10951.2
11177.1
11385.7
10664.3
10934.1
10399.4
11500.4
10318.8
8780.82
11401.1
11215.6
12371.5
9641.54
11105.3
11199.9
11639.9
11949.8
11258.3
10637
12035.7
11910.9
10708
9320.86
10252.4
10246.8
10708.7
10418.7
9401.17
9399.32
9331.05
11115.9
11144.6
8951.37
10397.1
10985.4
12443.1
10231.5
10016.6
13078.1
11161.9
10416.2
11635.7
10824.9
9837.32
12380.4
10900.5
11831.2
12703.5
12262.5
10154.2
8638.78
8408.14
9029.67
10444.1
11046.8
8529.81
8515.69
9588.75
10983
10176.5
10643.1
9256.44
8870.08
8410.56
8776.38
11781.2
11470.3
12011.1
12785.3
9936.85
11284.3
10971.3
11520.7
9477.88
10998.7
10228.9
10854.6
9726.8
11689.4
10303
12392.1
9199.96
9346.29
8768.63
8727.01
10097.9
11052.9
10970
11740.9
9570.99
8584.86
10697.6
9877.56
12093.4
10111
11123.5
9818.66
10398.6
11635.1
9588.76
10716.5
12313.3
11184
10633.4
10417.7
12463.8
10269.9
8827.04
10453.1
9536.9
8680.43
11275.1
10830.4
10814.5
11355.1
12030
10726.9
10889.3
10724.4
11509.7
11323.6
11814
10069.2
10960.1
11329.7
10052.7
10949.5
11372.8
12025.2
10830.8
11028.8
11541.8
5649.9
10407.8
12031.4
11281.3
11106.8
11742.2
11486.9
12162.4
12282.8
11970.3
6606.72
10782.7
8440.68
7699.66
7186.6
8944.24
7398.39
10055.4
11493.3
11598.4
10784.5
10656.6
11437
13783.2
10524.9
13904.2
9921.11
10398.8
10508.4
12354.2
10062.4
9625.37
13794.5
11649.9
10063.2
11001.6
11520.9
11349.7
11101.8
10337.9
10339.6
12832.8
13144.1
9280.21
12260.6
12191
10425.7
11198.6
11785.6
11696
13416.6
12850.4
11758.6
11986
10283.9
14238
12093.7
16090.4
10896.6
11054.3
11170.5
11606.7
18304.3
22177.4
17820.3
18270.4
12555.8
14455.2
21302.4
20597
12020.2
16778.1
21319.4
12240.4
17274.8
15778.8
22038.5
11406.5
10386.2
16994.1
23056.5
10522.7
18426.2
12969.8
13261.1
11491.1
20536.1
11143.7
18215.2
17398.3
16782.7
22498.1
21315.2
19631.3
11336.1
18124.3
17603.5
17899.7
10626.1
12368.1
16567.4
13384.3
14385.3
12104.7
12447.5
21646
21103.5
18404.4
19214.7
20734.7
23980.2
23177.1
21826.8
21045.9
22268.9
21129.6
21830.1
22336.7
22134.8
22368.3
22170.8
20789.4
22270.5
21369.8
21602.3
21050.3
20012
21451.2
18740.1
20092.9
21647.4
22197.5
23258.5
24153.1
21395.1
22741.3
24614
23626.8
22567.6
20423.1
23420.8
23156.9
22323.5
24731
22888.1
22449
24747
20683.9
19390.7
20209.3
22546
18390.8
19326.1
20024.1
22000.3
20318.1
18335.5
19487.8
20561.2
21191
22208.5
20821.2
22143.7
20644.2
19896.3
19586.2
20120.3
19833.5
20287.7
20371
18367.1
17809.7
19503.6
18052.3
22146.5
19444.9
21794.3
21791.5
17927
22777.9
18315.9
22585.2
19191.7
22044.8
21209.4
23330.1
21582.1
24918.9
20804.8
20622.8
21012.6
20527.9
18985.7
22774.9
23086.8
22489.6
24640.4
23399.6
19873.5
25113.8
21073.1
24373
21295.6
21925.8
23322
20331.7
21560.2
23535.6
22879.5
23110.5
22908.5
23905
21424.3
21896.1
23697.3
22794.8
20760.8
23074.3
22990.6
19878.2
22099.1
20920.3
21612.2
22818
22033.8
20603.9
18589.5
19905
20385
21726.1
21099.5
19687.5
20593.7
19265.1
21221.6
22228.3
21845.1
21998.8
22682.2
16663.9
14381.6
17582.7
15243.2
14851.9
13477.2
17234.8
14613.3
16728.7
18138.8
16934
15937.7
17216.5
19512.4
18117.2
18608.8
18666.4
17760.5
18036.1
16482.8
16329.5
17797
17875.8
14570.6
17795.1
15449.1
15965.2
16444.5
16271.1
13632.9
14430
14654
15282.8
14907.2
14806
15709.6
14549.7
15510.8
14801.3
15038
15774.8
17041.6
19471.5
14569.7
18447.2
18686.1
17146.3
17496.1
16787
13791.1
20219.7
20918.3
17140.3
19497.2
7103.37
8180.82
9919.23
9298.22
12075
11618.6
10648.1
11403
11820.8
10417.8
12007.1
12549.4
12330.7
12296.2
12581.4
9809.08
11739.6
12168.3
10289
12637.1
9411.02
8969.85
6608.93
10150.1
12830.6
10919.6
11919.2
10217.2
11080.4
11865.3
12733.9
11914.2
11668.1
7832.18
9094.82
7838.83
11509.7
7575.11
8958.71
9450.27
9427.91
9380.39
10485.5
8049.85
10907.3
9146.96
10739.7
9630.5
8961.65
12561.4
10819
12155.8
10827.9
7872.63
12641.8
11542.6
12205
12957.3
11637.6
12138.3
7195.76
12285.6
12219.7
10305.9
10598.4
13327.2
12253.5
9993.47
10942.1
11318.5
11141.3
11063.5
11792.8
9364.56
10199.5
10547.2
8915.23
11483.3
9877.52
11858.3
8058.99
5958.5
9512.13
8375.88
10969.9
11413.8
9183.61
7232.87
11358.2
12172.3
9403.36
8734.16
11239.2
10597.2
12748.9
12498.4
10565.7
13071.7
11984.1
12061.7
14245
12344.4
10837.2
12877
14353.8
13362.5
10051.2
12442.5
13595.5
11777
9311.68
10353.2
10647.2
11503.5
11222.2
9248.26
10837.4
10010.8
10518.5
9417.12
11664
11030.3
13377.6
11743.9
11481.7
11334.2
12056.8
11987.5
12050.3
12757
11318.5
10791.4
11248.7
13016.4
13100.9
13347.9
11911.4
12178.4
10369.9
12907.2
11687.3
12018.2
11664.2
11518.9
10458.2
10674.6
10442
10575.7
12455.9
12851.6
10522.9
10254.3
10161.7
7910.67
9047.72
10128.7
11744
10137.7
9548.33
10658.3
11295.2
11893.8
11171.2
9019.76
7645.96
10203.2
8843.83
10902.1
10950.6
13277.4
13597
11284
11267.8
12402.1
10502.8
12234.7
8902.59
9369.6
11597.7
9475.98
12504.9
10366.3
11215.4
13479.5
11199.4
12917.2
11063.1
12444
12459.3
11646
9688.55
12543.2
11941.6
11227
9106.63
13725.2
11467.7
9153.67
8091.79
12239.4
13149
11311.9
13823.6
11549.2
12218.4
10822.4
13215.4
9855.01
12116.1
10498.1
10893
10623.3
9808.71
11134.9
9955.55
12164.9
11120.4
10775.8
10145.9
9389.34
10675.7
11549.6
11210
11213.5
10751.4
12409.6
11643.6
12832.7
11612.2
13324.6
11309.1
11919.5
11420.4
11019.3
11335.9
11704.2
10938.6
11241
13822
10950.1
13640.6
11583.9
15191.1
10991.1
10243.4
15011.3
11239.6
10564.4
11416.4
12505.4
10525.4
10131.6
10327.4
12157.8
11102.7
11642.1
9613.29
9609.51
9545.04
11381
10072.3
10636.2
8798.33
8491.88
8863.31
8938
10748.7
10202.2
14133.9
11233.3
11747.4
13307.4
11326.1
14576.6
12504.5
11586.8
13337
12439.6
10488.8
13380.3
13419.9
12596.3
12090.6
12417.1
11629.1
9211.59
11631.9
10356.6
10412.9
10158.8
10592.2
10012.3
11504.4
10713.5
11223.4
8662.18
12116
10398.7
12173
9458.23
12538.6
13413.6
9182.07
13529.1
12334.6
13435
11304.4
9418.93
10295.9
10988.8
10125.8
11517.8
12634.9
10592.2
10631
10156.2
11360.6
9967.43
9530.87
10955.4
10012.5
11393.4
9305.56
10564.6
10794.8
8409
10739.3
9806.6
10455
12173.7
10638.7
10182.2
11089.6
11784.8
12257.5
8891.32
11659.2
11345.4
11221
10147.8
9756.51
9502.48
8260.49
9837.24
8206.57
9375.89
10089.7
9209.08
10266.2
10003
9609.02
11243
12499.6
11312.4
10322.8
10595.8
10937.5
10003.1
11803.4
10069.8
10091.4
9313.59
9147.88
10738.8
9315.54
10275.4
11290.3
10508.4
10939.1
11428.5
10580.2
11922
9365.05
9893.09
11078.5
11863.3
10836.2
10062.1
10068.7
10556.5
9679.05
9876.82
10274.5
12776.1
10318.3
12315.1
11253.1
9585.61
9854.76
12264
12645.9
12368.8
11522
9103.22
12083
11587.1
11110.4
11220.7
11002.3
8872.11
8117.71
10256.4
11484.8
8988.85
11294.8
7810.68
3260.09
10737.3
10409.8
10439.3
6913.77
9617.64
6228.39
11538.7
8516.87
8453.11
10696.2
12772.8
10897.9
10795.1
11947.7
12370.9
14650.5
14738
9182.35
10794.4
12043.4
12876.4
13474.4
12623.2
13198.2
10751.6
13437.8
9598.04
11220.6
10566.4
10859.2
12543.7
12104.9
12433.7
11174.6
11186.5
10120.4
11387.4
24551.2
16847.6
17510.7
23186.4
19550.7
9509.66
12943.5
16247
12621.3
22475.7
16147.1
14795.7
12491.9
17279.5
12911.1
15684.2
13173.1
19920.9
18518.4
12109.9
10747.9
9343.45
11193.3
15907.4
19197.7
11205.2
21403.6
16946.8
13681.1
19214.4
15149.1
22890.8
23106.4
4321.14
22656.1
13965.9
21573.8
12907.4
12381.9
10792.9
25746.1
25510.4
17941
23989.8
4359.88
23205.6
4306.85
19489.6
23961.6
24314.1
25359.3
25534.1
24642.9
23291
17339.7
21983.1
24184.3
21503.5
18752.1
23279.9
15936.4
23782.8
10016.1
12867.6
23503.6
18460
22589
18780.3
22812.2
17694.8
11380
13047.6
13580.2
13092.8
13749.6
11071
10403.4
18895.4
21706.3
20557.7
20621
20290.7
22397.6
21851.5
21188.6
22210.2
19957.4
21553.1
21809.2
19772.6
20736.1
23953.9
19906.6
20588.9
22209
22146.1
21735.8
25508.8
23937.6
22668.5
22739.1
24345.4
23828.8
24341.7
24841.2
22643.2
23567.8
24252.7
23086.2
22113.6
25082.7
21517.7
22706
24536.7
24142.6
20065
24046.5
23009.6
22769.1
21426.8
21587.7
23487.2
22320.1
21255.8
21096.7
22148.1
20393.4
20994.5
21380.5
20145
20961.2
22780.9
22140.8
22051.4
21631.5
22424.6
24246.9
24106.6
23360.4
22916.4
21398.8
24209.5
24469.1
22469.7
22708.9
22293.9
22270.1
22152.9
23921
23588
23763.3
21758.2
19817.1
21776.3
21514.1
22553.7
23157.5
22309.3
22408.5
22684.7
23350.6
21333.2
19272.6
21078.8
22419.1
22409.1
19747.3
18256.3
18336.8
18548.9
20071.2
20962.1
21840.2
19343.7
21344.3
22302.9
22899.3
23054
24033
21188.8
23339.9
23161.9
22171.7
21181.2
22417.2
23261
21720.6
21355.4
21271.3
21592.1
19980.6
23324
24400.1
20282.8
21915.8
20672.3
21770.9
21279.1
18020
17972.1
18775.8
18355
17782.9
18629.7
19257.8
19670.7
19462.7
19366.4
20026
20522.8
19485.3
19410.3
21352.9
19992.5
19888.8
19918.6
20299
19751
20491.5
21041
18813.5
19656.8
19714.3
19869.8
18988.3
19117.4
19542
20106.5
21111.4
20364.4
23706.6
24312.1
25830.7
25169.7
26188.1
24883.6
22798.1
27042.1
27253.9
25291
23256.1
26110.2
27403.5
26717.1
25865.4
23138.2
23727.7
22806.9
21883.7
24333.2
20772.4
19724.5
20801.5
24012.8
22940
20703
19489
21357.7
19827.7
17015.9
22867.9
22150.6
19846.4
23257.8
17961.9
22859.3
20653.7
22527.1
21662.9
20910.3
18195.3
21886
15134.6
21737.1
12434
42949.7
51369.2
51620.3
53274.6
50448.8
42347.1
25582
35965.8
33429.5
46093
49978.4
41450.6
29873.7
35377.3
46790.8
40706.4
16721.7
15750.3
17067.6
15621.6
17870.4
17826.8
18185.1
16470
16908.4
16030.1
17846.5
14044
18403.2
19013.2
17821.2
20352.5
19954
19964.9
19507.4
19991
18778.3
18253.2
18490
18210.3
20375.8
18460.9
18553.6
18531.5
18888.3
20108.7
17948.2
17565.7
18743.6
19172.6
17809.3
17660.2
18848.8
16466.7
15055.4
16475.3
16059.2
15260.1
15260.5
16185.3
16194.5
14929.2
15820
14186.3
14781
15594.4
14637.6
15637.1
16184.8
15922.1
15570.8
14935.9
14747.4
17653.8
17847.2
16867
15327.1
15878.6
16056.1
15527.7
11730.7
14834.6
15417
16876.4
14455.4
14011.1
15122.5
4819.63
6857.23
5831.89
10490.3
9643.42
7139.21
11672.9
13437.9
12336.5
13779.2
13210.9
13132.7
13291.9
13829.7
12854.9
11761.7
11649.9
8998.3
13053.1
11131.1
11432.2
11950.8
11587.8
11099.4
11840.6
8639.91
6791.36
9463.61
11424
10869.6
11636.9
11227.1
10890.3
11120.9
10000.4
11541.9
9287.39
12087.9
8780.79
9555.18
7336.24
10779.5
10563.1
11722.5
8942.18
12756
13757.5
8697.73
13161.8
10889.8
11810.5
7045.53
7880.19
7598.27
9271.76
10289.5
9032.47
9730.19
12909.8
4094.73
6573.71
7803.84
8973.43
11390.9
8340.83
7546.24
10798.4
10265.4
10271.4
8601.51
10197.9
7299.13
10657.8
11752.1
8875.4
12033.9
8904.75
9656.3
8104.34
10871.1
12726.8
10469.9
10599.6
10837.7
11425.1
8847.11
9586.84
11710.7
13153.2
11866.2
10565.6
11169.9
11145.2
8123.94
11272.9
12943.1
11349
11024.4
11755.5
11662.2
12287.4
11314.4
12183.3
11812
10631.8
12946.9
11842.8
10139.6
11523.3
11822.2
12392.2
11884.6
12912.2
12058
12135.6
10658.2
11955.1
8105.92
8509.5
12159.1
10669
10084
13457
11484.9
12547.6
10885.3
12783.1
10947.8
11442
9440.13
11026.6
11035.3
11369.7
11324.4
8375.21
10781.8
11218.3
10915.2
8542.75
11491.1
11105.3
12182.3
12084.5
10984.9
10362.4
11591
11233.7
11555.1
11729.8
11073
11270.2
13344.1
12413.3
12578
11827.1
11058.6
10494.8
10920.6
9643.76
11464.5
13368.6
12018.9
13443.6
13225.1
10257.9
11910.4
10954.5
11529.6
11238.7
11979.4
9270.02
10648.1
11293.9
12279.2
10832.6
10683.1
11452.6
11144.7
10190.8
11018.4
13341.9
11632.2
11585.2
10050.6
11529.2
10536.1
11629.1
8839.12
10380.1
11472.1
11515.4
9002.85
12505.1
12567.3
9768.61
11219.1
9738.46
8053.11
10880.1
9606.33
9127.38
8174.05
12714.4
11427
9204.37
9422.37
10548.9
10138.8
12087.3
10145.3
12135.2
10434.5
11285.2
9498.26
10603.7
10381.7
10387.7
9193.01
10759.6
11081
12187.8
12125.8
12619.1
11862.5
9179.83
11176.7
12606.4
11572.2
10268.3
11424
10461.5
10352.7
11024.2
10862.4
11618.5
13596.1
11768.6
9590.07
12252.9
9858.47
11320.4
9989.79
12447.9
9791.44
12572
10739.4
11851.7
13229.2
11615.1
10918.7
11089.7
12061.6
11720.7
10810
11219.2
10641.8
11885.6
11511.2
10297.5
8111.62
10589.4
10063.9
10085.7
10161.6
9234.8
8002.04
10428.2
8687.12
8465.53
8521.14
9056.25
9189.1
10294.4
9145.31
8885.18
8526.87
9024.14
8229.83
12304.7
8181.38
8297.94
11295.9
12259.5
11345.6
10979.6
10354.3
10875.6
11074.2
8737.94
11383.8
10750.8
10951.2
10637.9
9148.5
9347.56
9529.5
8696.16
10560.5
10719.5
9356.75
7872.91
11714.2
11323.7
9827.23
9792.91
11893
10419.4
10604.4
9841.74
9626.79
9881.09
12640
11940.4
10955.5
9955.49
9161.92
12312.7
9228.37
9580.9
10062.9
10533.9
8725.1
11253.1
11724.4
8775.49
9452.4
11738.6
9236.75
9878.62
11343.2
11082.9
9064.31
8363.36
10943.9
10317
11077.8
11787.8
11400
10657.2
9061.5
12126.2
9274.78
11962.4
10947.6
9706.16
10301.9
11460.1
11961.5
11591
10332
12181.9
10405.1
10010.6
11524
11859.7
11630.1
7837.15
10726.1
9127.48
11734.9
10464.1
11479
9009.54
11256.9
9380.02
11931.5
9293.84
8601.91
12027.7
11100.6
8945.25
12401.5
11650.8
9761.21
9396.08
11508.1
8903.66
12188.6
11347.9
10808.2
9072.34
11242.4
10311
9537.92
11617.1
9959.77
11080.6
9424.63
10509.1
10685.1
10136.9
10528.3
10431
11372.2
10877.2
11823.5
12100.6
11704
11954.3
11007.2
12099.1
11576.8
12396.3
9554.12
10711.8
10459.5
10047.6
10773.2
11486.3
11764.6
11758.8
12173.3
11453.2
11707.9
10666.4
10479.1
11716.3
10580.4
11765.9
10472.6
11864.4
11968.9
11159.6
11874.6
10292.5
10600.7
10473.1
10170.5
10241.4
8886.95
9962.84
10529.3
10297.5
10632.9
10963
10605.1
11141.2
12682.1
10437.8
11068.8
11812.8
9611.74
10376.8
10355.2
10122.9
12014.7
9374.11
10989.4
12053.6
9614.83
10099.3
11730.4
9909.57
10528.6
11445
9369.17
11015.3
10263.5
12308.8
11189.8
10374
7985.53
9059.02
9812.21
9181.23
10042.8
10025.2
9552.28
9478.16
10977.2
9312.93
10177.1
9473.59
11362.2
10209.1
10345.4
8672.54
9031.85
10931
9958.17
11442.5
8663.22
8719.47
9718.12
10227.1
9678.18
11455.1
11377
9553.42
9917.36
10094.7
10843.6
8533.19
10623.7
12085
10933.4
10775.1
19922.4
11450
10629.9
13500.1
15440.7
10878.6
14116
17338.7
20131.6
10415.6
10802.5
17862.8
24937.2
12016.3
21905
15340.1
15139.7
13387.8
19619.1
11254.2
10521.9
17902
12171.4
12040
12780.2
12074.5
12028.7
12112
11441.9
11686.8
18220
14538.8
24657.9
12019.6
23700.2
24264.1
19156.7
20940
14510
17435.8
10072.4
21572.4
14670.3
9219.4
13570.5
19717.8
9971.5
21074.2
21158.9
9688.01
14521.3
18315
11160.5
13327.4
10974
20050.9
11130.7
18564.1
19574.6
18943.9
10612.1
15183.1
22010.7
10222.6
17296.7
15769.3
15519.2
19613.2
18062.5
21754.7
18472.7
22466.7
11573.7
22246.8
15254.8
24499.5
14316.4
19307.9
9948.67
19120.2
15261.4
10013.8
13330.4
13531.3
12200.1
23812.6
13400.6
18332.9
18058.7
12130.5
11011.3
10773.9
14408.5
24542
22261.7
20521.8
21384
22514.5
23391.9
8619.9
18662.2
14523.3
11455.4
14469.2
14717.6
13949.5
12098.9
11533.5
13906.5
16369.1
17888.9
20636.5
23446.7
23824.1
21308.7
23167.7
23019
23620.6
21077.5
22902.6
19988.9
23610.1
21084.8
23517.2
20049.6
21633.3
21963.8
18863.7
24039.9
22605.5
21242.8
20472.3
20155.3
22992
18471.6
22446.8
26328
23374.8
23682.3
25654.8
25490.3
25160.3
24091.9
23744.4
24876.3
25205.6
26404.4
24646.1
24071.9
25739.2
24960.1