# vtk DataFile Version 3.0
Happy Go Lucky
ASCII
DATASET POLYDATA
POINTS 14290 float
-0.605372 0.342205 -0.696348
-0.636177 0.346183 -0.708581
-0.608617 0.35903 -0.719532
-0.632095 0.373926 -0.725874
-0.650741 0.376952 -0.701797
-0.609706 0.377633 -0.733496
-0.589601 0.371269 -0.69796
-0.593302 0.375667 -0.72391
-0.593119 0.391815 -0.740113
-0.580948 0.394268 -0.717317
-0.642911 0.400146 -0.717865
-0.621482 0.400443 -0.740322
-0.597534 0.443068 -0.760646
-0.644729 0.443092 -0.712787
-0.6292 0.47758 -0.742944
-0.609714 0.483681 -0.762165
-0.660881 0.494611 -0.696825
-0.642029 0.498775 -0.728781
-0.632809 0.450723 -0.735119
-0.615608 0.458411 -0.754188
-0.643907 0.470557 -0.718481
-0.59739 0.46525 -0.764768
-0.59667 0.41625 -0.753069
-0.646414 0.421158 -0.708612
-0.636462 0.424238 -0.728323
-0.619374 0.431471 -0.748728
-0.575366 0.413102 -0.737193
-0.575236 0.421247 -0.711555
-0.573929 0.43397 -0.755549
-0.57027 0.439395 -0.730889
-0.572791 0.448858 -0.706965
-0.567729 0.454897 -0.74678
-0.577296 0.458436 -0.765672
-0.569067 0.466227 -0.727482
-0.573397 0.477279 -0.702731
-0.566637 0.478187 -0.751116
-0.584106 0.483908 -0.771595
-0.571287 0.498345 -0.726968
-0.703505 0.58227 -0.700275
-0.666735 0.550998 -0.717777
-0.688676 0.55721 -0.698717
-0.623341 0.561569 -0.759878
-0.598685 0.513733 -0.771279
-0.595993 0.565249 -0.703633
-0.603767 0.585629 -0.713833
-0.622124 0.586931 -0.757714
-0.663698 0.591973 -0.742079
-0.624728 0.50468 -0.752348
-0.660273 0.568346 -0.733455
-0.644316 0.576267 -0.749811
-0.596935 0.577279 -0.758631
-0.680085 0.579173 -0.718787
-0.638335 0.52174 -0.740767
-0.654515 0.524137 -0.720248
-0.674079 0.530693 -0.697015
-0.623331 0.53307 -0.758574
-0.645294 0.547644 -0.741057
-0.598372 0.54847 -0.76901
-0.567994 0.507175 -0.758732
-0.577618 0.555885 -0.748084
-0.576036 0.524513 -0.714031
-0.572559 0.528721 -0.738318
-0.574372 0.533868 -0.764384
-0.590188 0.573253 -0.729241
-0.581348 0.548693 -0.719925
-0.576491 0.50634 -0.696269
-0.707279 0.605358 -0.724315
-0.597772 0.600659 -0.741746
-0.635343 0.609171 -0.754385
-0.675971 0.613466 -0.723081
-0.615485 0.614119 -0.711157
-0.652134 0.619058 -0.729344
-0.655055 0.619927 -0.701889
-0.681943 0.624039 -0.696045
-0.635669 0.281084 -0.632158
-0.680383 0.283358 -0.62022
-0.662207 0.28409 -0.64177
-0.688224 0.288953 -0.599112
-0.640811 0.29381 -0.655801
-0.620524 0.295938 -0.615621
-0.682834 0.261499 -0.59726
-0.656646 0.264614 -0.619783
-0.63122 0.274641 -0.605289
-0.674761 0.352109 -0.633685
-0.680683 0.351094 -0.610783
-0.625515 0.322316 -0.689615
-0.606542 0.329656 -0.671247
-0.648865 0.329934 -0.690031
-0.678456 0.3295 -0.622766
-0.663522 0.329786 -0.671626
-0.620588 0.30116 -0.640551
-0.67249 0.329734 -0.647271
-0.683761 0.330297 -0.598814
-0.6009 0.336139 -0.606185
-0.60054 0.34098 -0.65332
-0.609114 0.322378 -0.647596
-0.600501 0.33992 -0.631857
-0.658588 0.353235 -0.685597
-0.595323 0.353952 -0.671358
-0.677137 0.306318 -0.634994
-0.664449 0.306519 -0.658174
-0.682844 0.307739 -0.610478
-0.620731 0.308085 -0.666068
-0.678509 0.371731 -0.619725
-0.61008 0.3177 -0.623265
-0.610934 0.312661 -0.598848
-0.684343 0.389794 -0.605042
-0.677777 0.391321 -0.625187
-0.662354 0.384651 -0.670007
-0.645553 0.311122 -0.675704
-0.672016 0.376291 -0.641864
-0.683784 0.369443 -0.600773
-0.667492 0.354301 -0.658563
-0.593186 0.360343 -0.645501
-0.58722 0.380791 -0.636883
-0.591558 0.363557 -0.616647
-0.586025 0.383577 -0.664111
-0.585553 0.393286 -0.61718
-0.732807 0.496429 -0.595744
-0.714356 0.491986 -0.613566
-0.696797 0.484051 -0.633087
-0.700874 0.468594 -0.613841
-0.695693 0.431825 -0.597167
-0.672563 0.403693 -0.643062
-0.677433 0.432668 -0.63855
-0.664065 0.422553 -0.666771
-0.654657 0.459583 -0.694758
-0.683743 0.414903 -0.615886
-0.686159 0.459375 -0.634926
-0.66185 0.447157 -0.676654
-0.690776 0.443761 -0.615449
-0.676245 0.49032 -0.670004
-0.606262 0.493523 -0.598412
-0.596955 0.493497 -0.623452
-0.691601 0.49955 -0.652792
-0.681059 0.475566 -0.653245
-0.667367 0.469527 -0.674476
-0.653688 0.433147 -0.69172
-0.672264 0.451225 -0.657047
-0.653388 0.40622 -0.69271
-0.580765 0.402392 -0.690443
-0.584937 0.451768 -0.61303
-0.581768 0.446477 -0.638714
-0.579325 0.440292 -0.662904
-0.576698 0.43082 -0.686645
-0.586334 0.49097 -0.649374
-0.581169 0.414443 -0.665407
-0.581552 0.425707 -0.646027
-0.583044 0.423185 -0.62062
-0.577672 0.485439 -0.675914
-0.579755 0.46568 -0.656885
-0.585692 0.471116 -0.631463
-0.583255 0.403533 -0.641684
-0.593517 0.47487 -0.60691
-0.575633 0.458169 -0.682154
-0.760194 0.550963 -0.638587
-0.740634 0.553863 -0.653413
-0.71952 0.54757 -0.662513
-0.782918 0.552557 -0.616737
-0.7113 0.563399 -0.682555
-0.696376 0.540159 -0.677721
-0.731799 0.533797 -0.638625
-0.757421 0.5314 -0.618101
-0.733737 0.56918 -0.669601
-0.779163 0.529406 -0.598334
-0.704934 0.524739 -0.655738
-0.757378 0.573045 -0.655849
-0.768126 0.576629 -0.595592
-0.77368 0.57942 -0.629968
-0.723683 0.589963 -0.684494
-0.732885 0.513804 -0.615111
-0.717058 0.590102 -0.608079
-0.711381 0.508835 -0.634008
-0.754636 0.512701 -0.597415
-0.612993 0.514107 -0.612792
-0.682896 0.513811 -0.674718
-0.60062 0.515211 -0.640678
-0.648639 0.552037 -0.609441
-0.607333 0.560772 -0.679328
-0.623226 0.56144 -0.655104
-0.64343 0.56485 -0.634386
-0.66594 0.570382 -0.618799
-0.624452 0.576642 -0.673474
-0.690856 0.579173 -0.609871
-0.66031 0.580422 -0.638648
-0.633802 0.530527 -0.599116
-0.603049 0.538727 -0.659935
-0.621903 0.540907 -0.629524
-0.613887 0.581874 -0.693297
-0.644936 0.58334 -0.658575
-0.680248 0.588007 -0.631288
-0.587241 0.512723 -0.668818
-0.587401 0.537797 -0.690869
-0.753022 0.600527 -0.606225
-0.765132 0.600721 -0.642023
-0.697461 0.602427 -0.610236
-0.754178 0.60328 -0.67365
-0.696745 0.609469 -0.645854
-0.725957 0.610427 -0.635224
-0.707501 0.612277 -0.692342
-0.717121 0.618096 -0.668174
-0.622504 0.600946 -0.674963
-0.65734 0.605978 -0.639083
-0.66169 0.611289 -0.675926
-0.689342 0.62045 -0.670894
-0.398224 -1.10015 -0.500782
-0.301401 -1.09961 -0.536139
-0.33823 -1.09986 -0.499324
-0.266591 -1.09995 -0.498793
-0.208274 -1.10016 -0.528075
-0.245926 -1.09987 -0.548666
-0.120915 -1.09952 -0.549035
-0.172326 -1.09983 -0.540667
-0.126957 -1.10005 -0.506456
-0.0295223 -1.09981 -0.542415
-0.0789549 -1.09963 -0.521414
-0.0349969 -1.09998 -0.506591
0.0932021 -1.09713 -0.497537
0.021223 -1.09979 -0.522026
0.051216 -1.09863 -0.50919
0.139653 -1.09878 -0.499437
-0.696665 0.257147 -0.567583
-0.711108 0.254015 -0.513497
-0.705101 0.255779 -0.539852
-0.712213 0.228528 -0.502762
-0.703679 0.230576 -0.527681
-0.704647 0.280113 -0.522259
-0.699708 0.282841 -0.549866
-0.694193 0.215483 -0.512796
-0.672521 0.214938 -0.504049
-0.636572 0.246352 -0.530661
-0.678359 0.220801 -0.528259
-0.66961 0.24127 -0.572084
-0.639816 0.24903 -0.560591
-0.659317 0.231976 -0.544955
-0.634002 0.243385 -0.502156
-0.688989 0.233298 -0.550699
-0.64747 0.253786 -0.591268
-0.653259 0.227638 -0.517629
-0.62091 0.265689 -0.513336
-0.623804 0.270289 -0.542004
-0.625416 0.27647 -0.574114
-0.605687 0.283968 -0.495881
-0.693865 0.284556 -0.577465
-0.609902 0.289665 -0.522566
-0.620054 0.292727 -0.59367
-0.612293 0.296255 -0.549688
-0.704191 0.301367 -0.50321
-0.699207 0.310732 -0.530531
-0.699721 0.378983 -0.550292
-0.703256 0.325427 -0.506882
-0.701006 0.342124 -0.523649
-0.715899 0.396294 -0.51278
-0.698761 0.357102 -0.541477
-0.706843 0.372701 -0.521437
-0.612165 0.304857 -0.575142
-0.688203 0.308555 -0.586751
-0.597582 0.308079 -0.504145
-0.693361 0.308723 -0.561028
-0.599365 0.314334 -0.529795
-0.6008 0.321669 -0.555319
-0.688843 0.331963 -0.574286
-0.694608 0.334538 -0.54876
-0.601406 0.329396 -0.580501
-0.692456 0.356261 -0.56355
-0.686173 0.353392 -0.587976
-0.690985 0.380772 -0.579568
-0.590828 0.34015 -0.53606
-0.590195 0.333321 -0.51055
-0.592587 0.347521 -0.561496
-0.585326 0.360184 -0.516932
-0.584372 0.39577 -0.551228
-0.585335 0.394838 -0.575506
-0.583647 0.386715 -0.524668
-0.582814 0.38174 -0.498385
-0.587121 0.381167 -0.593112
-0.587455 0.373477 -0.568308
-0.586094 0.367091 -0.542863
-0.592685 0.35493 -0.587459
-0.799396 0.494667 -0.510484
-0.720684 0.464263 -0.575037
-0.704862 0.453804 -0.594456
-0.731949 0.482711 -0.58054
-0.728608 0.453739 -0.551335
-0.768893 0.48967 -0.559368
-0.762124 0.448492 -0.509659
-0.736619 0.442338 -0.525605
-0.707454 0.435815 -0.57245
-0.741886 0.42873 -0.501705
-0.716183 0.426801 -0.543271
-0.722976 0.417746 -0.51831
-0.789983 0.486284 -0.53817
-0.716822 0.476843 -0.594876
-0.750753 0.494983 -0.578702
-0.742609 0.476456 -0.562778
-0.786245 0.467282 -0.515234
-0.759212 0.466665 -0.53728
-0.727443 0.406894 -0.496154
-0.702042 0.40574 -0.561212
-0.709647 0.400101 -0.534377
-0.623481 0.481902 -0.527644
-0.618624 0.48526 -0.548991
-0.635939 0.488568 -0.510145
-0.613012 0.490021 -0.57391
-0.635574 0.498151 -0.534915
-0.602388 0.467021 -0.562838
-0.602875 0.448961 -0.516339
-0.59645 0.44638 -0.541677
-0.618471 0.469046 -0.510218
-0.595392 0.429194 -0.499098
-0.60984 0.46693 -0.534419
-0.693383 0.410047 -0.588463
-0.60113 0.477168 -0.586243
-0.585268 0.433362 -0.592431
-0.58926 0.441601 -0.5669
-0.591718 0.458266 -0.588046
-0.591276 0.427615 -0.523772
-0.586923 0.423182 -0.547232
-0.584934 0.416229 -0.571191
-0.585305 0.408323 -0.530931
-0.586233 0.406999 -0.509648
-0.584726 0.407155 -0.594905
-0.79529 0.513932 -0.529777
-0.793941 0.531639 -0.573435
-0.788635 0.533839 -0.546147
-0.698461 0.536508 -0.526711
-0.752281 0.541005 -0.519577
-0.724918 0.543217 -0.520879
-0.766251 0.547663 -0.540606
-0.779166 0.551926 -0.562189
-0.7123 0.551356 -0.545064
-0.739949 0.554671 -0.540445
-0.792513 0.508445 -0.556885
-0.786766 0.555212 -0.586701
-0.697666 0.557893 -0.568634
-0.756244 0.562387 -0.558592
-0.769461 0.565558 -0.57488
-0.7283 0.566856 -0.565512
-0.774988 0.509221 -0.579034
-0.784958 0.514823 -0.508781
-0.738316 0.53286 -0.498032
-0.736343 0.581403 -0.588808
-0.707553 0.572925 -0.588182
-0.751924 0.572774 -0.575334
-0.765018 0.524696 -0.500848
-0.710329 0.530576 -0.501374
[...]
POINT_DATA 14290
SCALARS scalar float
LOOKUP_TABLE default
21278.6
20090.5
20871.2
20681.7
20199.1
22022.2
21778
21973.6
22250.7
22965.4
22148.2
22839.5
25252.6
23081.9
22541.4
23477.9
18436.9
19473.3
23654.4
25068.4
20858.7
25037.5
23510
23035.5
23719.4
24205.2
23134
24272.6
22745.6
25400.7
23934.6
24610.2
23027.2
24637.1
21716.9
22835
21253.4
22167.8
21309.2
20296.2
20630.9
21272.1
19764
21641.8
21459.4
19380.4
19040.2
21506.7
21487.1
21078.1
18778.4
21295.4
20497.4
18799.3
18631
21055
21455.4
19111.6
19300.7
19641.7
20441.5
21105.1
17690.2
21661.8
21463.6
19363
22310.2
21404.3
21933
30529.1
23807.6
27821.6
31468.2
32605
23063.6
22159
22275.9
23073.1
23910.7
24915.5
18941.4
19624.2
21762.1
25520.5
26334.5
21958
24119.4
21770.5
26630.8
23364.2
25642.9
25508.5
25944.9
23375.4
24751.2
26112.2
24562.8
21020
22778.2
24911.2
23904.1
25726.7
23962.8
25283.1
25593.5
23877.2
24057.8
23446.4
19700.6
23503.7
22844.6
25400.9
23214.7
23054.5
22253.7
22665.1
21458.6
22647.8
23585.2
23087.7
22680.3
23296.7
21695.5
21047.2
21503.8
20628.3
21639.3
22310.2
22683
22125.4
22379
20769.4
23256.2
21791.2
21378.3
22383.2
21660.6
22406.2
22160.8
20986.2
22271.3
23470.2
23317.9
22962.6
22885.6
20576.9
22296.3
23032.2
23064
20186
22234.4
22842
22391.9
23739
22142.7
20032.8
21242.1
21606.6
18481.8
21656
20455.7
21244.8
21822.5
21147.6
21917.3
20800
18685.5
21884.6
17425.4
20458.6
22161.2
20679.5
21473
23472.4
20314.6
19576.9
18685.1
20154.9
20328.2
19639
20387.9
21680.2
20886
21869.1
21758.1
20190.6
17987
18144.6
21403.6
21120.8
22047.9
18440.8
19268.7
22082.8
21234.3
24344.5
20282.3
32007.6
27601.7
32376.8
30061.9
23967.6
24700.9
32850.6
33134.5
13612.7
15445.9
17490
20354.3
19137.1
16006.9
16015.5
17386.2
20943.4
14092.9
18486.4
18088.7
19006.8
15660.4
18034.4
18177.4
19194.5
22208.1
20929.9
21802.8
21586.4
20851.5
20558.8
22142.5
23243.7
19657.8
22201
18327.1
18150.9
20102.5
21108.8
19953.7
18206.6
21925.4
19947.2
18959.9
20128.7
21646
21672.2
20326.6
23047.4
20126.1
20717.2
20385
21312.8
20354.4
20739.7
21675.4
21565.8
20978.9
21814.4
24274.5
22139.5
21801.1
21148.8
21314.5
23813.1
21788.7
22278.7
22940.5
25121
22956.5
21511.5
21707
21965.2
21395.4
24122.1
23713.5
22815
20388.9
22865.3
23010.6
22501.2
22336.4
19293
21975.8
22564
23199.7
19244.5
22033.9
20256.2
19009
20262.4
21571.5
19417.7
21076.7
19793.9
23664.6
23494.3
21325.4
19775
19136.8
22498.2
20100
20755.2
23485.8
24172.8
22363
24162.5
23083.2
24318.4
23284.5
24143.7
22724.2
22159.1
23950.2
21525.1
24300
23403.1
23854.6
23954.1
23958.1
24409.1
24011.3
24091.3
22581.2
23262.4
21548.9
21345.2
23643.8
21422.4
23035.9
21679.9
25122.9
24898.1
21932.1
23326.8
21395.3
21655.6
21827.4
25012.5
24559.2
22901.9
23237.3
21824.5
21099.4
22111.9
21784.9
24022.2
21670.1
21265.4
23951.3
23415.8
21731
22458.9
22458.5
22217.7
21365.6
21745
22242.6
21421.4
21960.3
21996.3
21661.3
37967.8
37461.9
38029.7
38540.9
34361.1
38628.7
35820.3
33464.8
36809.8
20961.1
15890.7
16999.5
13431.2
20700.5
22981.4
20056.9
23586.5
18567.2
23167.3
21925.3
25690.2
17823.2
20147.4
24210.6
25571.1
23769
18209.5
19089.7
24666
25603.8
20585.3
22393.8
21816.1
19577.8
19539.8
23708.9
23596
20525.7
23128.9
24167.8
25715.9
21522.3
20393.7
20984.1
20195.9
21085.3
19377.9
21682.4
23635.4
19240.3
21427.5
20617.1
20755.4
19322.1
20957.7
18246.1
21826.4
22044.1
21320.8
18567.3
21114.1
21067.3
24393.7
24660.6
21734.6
22263.5
21828.5
24098.5
21107.8
19157.4
25652.6
22560.1
17795.3
19582.1
20592.9
23535.4
23075.6
21712.1
21812.3
24184.5
19672.4
18716.5
18619.5
19264.9
21006.5
21882.6
23602
21666.8
23240.8
22487.1
23336.6
18856.1
22294.3
18789.6
22593.4
20751.4
17526.9
17629.4
21163
20387.5
17441.2
17591.4
18491.3
19520.3
18944.7
20996.6
15620.4
23910.8
21403.3
22062.2
19097.6
16335.3
17938.1
21139.3
22059.3
20318.7
19967.9
22936.6
21299.9
21671.6
22871.2
20708.8
24439.6
21657.3
20556.9
23510.1
20374.9
20416
22058.1
20785.9
25006.3
22218.1
21304.5
24105.8
23464.1
25345.6
23901.5
22217.4
22331
23004.3
20620.5
22020.4
22356.9
23427.4
23561.7
24746.7
20937
21904.7
19638.4
21155.2
20117.3
19274.6
20293.5
20310.5
20430.9
19962.6
21989.5
21447.8
19519.2
20210.1
22207
20778.6
20934.5
21542.1
21655.2
20899.4
19855.2
19509.8
19216.9
25082.4
23599.5
25095.2
22225.1
24292.3
23821.4
24968
24973.1
25362.9
23551.1
22205.8
20278.1
24413.9
20608.6
19926.7
19204.7
18578.8
21788.6
21903.7
23968.6
22086.3
22242.4
21402
23652.9
22723.2
22942.7
23309.9
21748
22780
25373.9
23229.4
20786.8
20317.3
21952.3
19186.8
26188.6
25096.1
25952.2
22881.9
22123.6
22817.6
20185.1
24052.8
23860.8
25713.4
24305.6
25335.7
25212.6
24160.8
21296.3
20464.1
23074.6
24431.6
23459.9
19387.3
21113.3
23038.2
21259.2
22905.4
24214.3
19988
21776.1
23795.1
20151.1
22322.7
20293.7
21309.2
22921
23171.2
23082.8
20482.8
19023.1
19421.1
23414.1
22455
21048.9
22812.8
21215.1
23582
22513.2
23727.5
24642.8
21177.8
22913.4
20765.9
20294.9
21599.6
22069.7
24016.2
22320.1
23373.8
22352.6
21792.9
22245.7
23355.6
23912.2
23440.4
23248.1
20882.9
23205.6
22987.2
23156.3
24910.9
22917.7
18148.8
19108.4
18946.1
18465.5
20093.7
21013.4
18779.1
19239.5
19976.2
19605.7
18475.5
18881.4
19532.5
19341.5
21627.7
20673.3
20559.4
21177.6
19655
20190.1
20755.7
21035.8
20952
20407.2
20918.7
21923.1
21568.5
21756.9
21082.5
24624.5
23299.2
21318.3
23300.5
23418.9
21964.6
24459.1
25009
21948.4
21103.6
23872.4
22272.6
20250
22053.1
22583.3
21681.2
22049.7
18500.5
20080.1
20303
19609.5
18479.6
19008
19275.3
20231.1
20663.2
20410.3
20807.8
20525.1
19853.6
19922.3
20737.9
19274.6
19914.7
19684.2
19625.4
20534.6
20180.7
20682.1
20698
21764.9
21879.2
20938.6
19860.2
22035.5
21623.3
19634.3
21020.4
18523.6
20121.9
22433.3
21457.6
22459.3
21064.4
21789.7
20224.3
19092.4
22284.7
22272.9
20442.3
22283.5
20593.1
21381.5
21746.1
21926.6
21415.5
22652.5
22185
19009
20392.7
22086.5
22519.5
18928.4
22409.1
21946.2
22282.1
20004.2
21527.3
19217.4
19586.1
22219.9
20630
22736.1
24519.9
24528.4
25121
23830.8
23552.9
24597
25213.7
25476.2
23270.4
20093.5
21601.3
25040.4
23732.8
23044.4
22344.5
24858.7
25728.6
25140.6
20645.4
19462.8
20451.8
20488.2
19083.1
20573.5
20962.7
19129.6
21969.6
18790.2
19804
20693.1
20561.8
20622.1
23198.5
22357.1
22468
21473
21131.2
22308.1
22943.2
21750.1
23111.2
22555.9
22590.6
21198
20404.7
21441.8
22068.2
21185.3
20321.3
20958.4
22176.3
21050.8
21372.2
21070.1
21295.6
21091.2
20973.8
21948.8
22585.5
20175.9
21662.6
19923.2
22194.4
20433
20514.5
20185.6
19574.8
19650.6
20309.8
21240.1
19630.1
21553.1
20742.4
20633.7
22615.2
19096
20348.9
18783.7
22263.5
20324.4
23861.2
22056
22697.9
19547.5
24041.1
21288.9
21892.4
22272.5
19964.1
21254.3
24116.4
24738.1
22292.8
19642.2
22427.4
23188.5
25092.9
23600.7
21490.4
22642.6
23704.5
23185.5
20626.6
22616.9
20336
22636.7
21102.8
22282.4
21742.8
18887.4
24232.4
23171
22243
20903.1
21655.3
21148.3
21101.5
20584.7
17634.8
19595
17580.2
16891.2
21826.8
20734.7
23980.2
23177
22368.4
22170.8
22271
20789.4
21370.2
21602.4
21050.3
20012
21451.2
18740.1
20093.2
21045.9
22268.8
21129.5
21830.4
22336.7
22135.2
22197.8
23258.6
24153.2
21395.3
22741.3
24614.1
23627
22567.7
20423.1
23420.9
23156.8
22323.7
24731
22888.1
22449.2
24747
20683.9
21647.5
19390.6
20209.4
20318.1
18335.5
19487.9
20561.3
21191.1
22208.5
20821.1
22143.9
20644.4
19896.4
19586.3
20120.5
22546
18390.9
19326.1
20024.2
22000.3
21791.7
17927.3
22778
18316
19833.6
20288
20371.2
18367.4
17810.1
19503.7
18052.5
22146.8
19445
21794.4
21582.1
22585.2
19191.7
22044.9
21209.3
23330.1
20527.8
18985.8
22775
23087
22489.6
24640.3
23399.8
19873.6
25113.9
21073.2
24372.9
21295.7
21925.7
23322
24918.9
20804.9
20622.9
21012.6
20761
23075.5
22991.5
19878.5
22100.5
20920.7
21613.8
22818.6
22034
20604.1
20332.2
21560.5
23536.1
22879.9
23111.1
22908.9
23905.5
21425
21897.3
23698.7
22795.5
19905.2
18590
20593.9
19265.2
21222.4
20385.2
21726.5
21099.7
19687.8
22683.1
22228.7
21846.6
21999.5
42086.7
40067.2
38696.6
45102.4
39354
40283.9
42756.5
42805.5
43905.2
41059.5
43822.5
40770.7
33497.6
43557.1
40653.4
38146.8
38093.8
42098.4
40636.7
38742.8
40331.3
41097.6
37953.3
37206.4
36241.7
34966.7
39040.5
38126.4
37362.6
38191.2
39079.5
34356.1
38388.6
37756.8
37185.4
23868.6
18188.9
18351.5
19657
20599.1
20635.9
23768.4
23247.8
24887.3
26117
22622
21256.5
25382.8
20234.9
22611.1
18804.9
23765.6
21592.8
24930.5
23879.4
22287.7
25567.9
22137.5
20656.6
20743.8
20152.7
19971.2
22119.8
23970.9
19290.4
21015.1
23629.2
17514.6
19827
22786
21742.9
22919
25983
21998.1
23424.5
21201.9
18448.8
21577.4
22835.7
21351.2
24841.8
25268.3
21893.1
21663.9
23337.8
25341.4
24049.2
25118.3
23879.9
24401.6
24125.8
23692.5
21527.8
24659.7
21119.1
25262.4
21026.6
22354.4
19837.5
20400.3
21751.4
20765.5
22274.2
21753.3
23028
21019.6
21701.8
19838.5
21519.9
22013.6
21150.6
18975.8
22113.5
21673
22128
21777.5
20808.9
21885.8
23393.9
20810.1
22769.9
23413.3
24185.6
22546.2
23000.9
22801.3
23065.3
18950.9
22515.6
23153.5
23421.6
19813.2
24071.2
25324
21848
20428.8
20274
20271
21914.2
22450.5
19112.8
23614.7
23130.7
24657.6
24231.1
25020
22833.8
18653.3
21059.5
21832.1
23061
23452.4
22858.3
23616.9
25047.8
24958.6
24304.4
21045.9
21462.3
23111.2
17776.2
19152.1
19395.5
18979.2
21124.9
20302.9
21422.9
19882.7
22286.1
21481.2
21002.3
23078.9
22940
23998.8
23882.2
22250.3
23635.5
26101.5
25052
24594.9
20344.5
21572.2
24321.2
21888.1
19614.4
20284.9
24376.9
24352.4
19609.5
18460.5
20200.1
18678.1
25671.7
24891.5
20859.4
25232.4
18275.4
18113.8
24814
23233.2
20975
25129.1
19958
24195.4
21972
18786.9
20050.8
20245.7
17028.7
19706.2
22914.7
21795.4
22201.2
22120.5
17207.5
24000.7
20591.7
21966.8
22957.7
23818.6
21718.9
21810.5
23386.7
22516.9
19909.9
22375
20954.1
22533.1
23810.8
20854.3
22511.1
22081.8
21945
21332.8
20286.8
22976.8
22863.6
24241.3
22417.8
20834.6
23674
22583.6
23266.7
22954
21152
20420.4
19896.7
24674.3
22055.7
20001.8
19621.3
20597.1
21573.2
22837.4
21808.9
21721.2
23589.8
22004
21784.8
22151.5
21420.2
21683.3
22857.1
21707.7
21331.4
23628.4
25349.3
26026.1
26017.6
24967
23704.9
25235.1
26070.9
25943.2
24782.4
23930.3
22172.1
23898.9
23444.3
24868.4
19057.5
24476.2
23376.1
24550.3
21510.8
23209.4
19345.6
22272.7
23986.3
22930.8
21577.7
21081.5
24881.9
23963.5
22394.3
24073.2
25271.5
22427.4
21563
22060.1
23977.4
23075.3
23926.7
23824.8
23824.8
22720.4
23276.3
24219.1
24661.5
22674.1
23773.4
22686.7
21966.5
22039.8
22657.4
22642.2
21552.3
22314.5
21881.8
22492
23092.9
22009.4
20967.7
21408.3
22818.9
23490.3
21933.4
22488.7
22539.7
21840.2
25256
24195.2
25394.3
22964.9
24008.7
24724.1
22232.7
23049.9
20469.1
22574.2
21971.8
22694.5
22246.2
22024.1
24120.9
22385.4
24955.1
23112.9
21359.8
21913.4
20912.6
21988.2
22432.8
21341.2
20439.5
20805.4
21018.4
20813
20008.2
19835.5
20598.8
20645.2
19541.4
21250.5
20811.4
21204.6
23508.8
23916.8
21904.4
20742.4
19829.1
20291
20758.1
19115.9
19037.6
19796.3
20143.8
20000.8
22138.3
21386.8
20546.4
24242.8
23849
23501.9
20088.7
19274.4
19209.4
20070.2
19177.6
19814.8
22170.5
22155
21720.7
19883.2
20274.6
20260.1
22106.9
19281.4
20752.8
19389
18992.9
20273.6
20493
20445.1
19368.2
20256.1
21552.1
20013.3
21975.1
20981.9
20840.4
20189.1
20614.2
21875.6
20890.9
21900.1
23440.4
22566.1
22247.2
21344.1
21873.3
22558.6
21772.5
21602.2
22381.2
22603.2
22395.7
22548.6
23401.9
23794.9
21636.5
23169.8
22962.7
23341.5
23662.8
22613.7
21213.7
21402.5
21598.2
21451.7
21157.2
22142.2
20731.4
21345.7
22463.6
22437
22029.1
20814.4
20524.2
21664.5
21731.6
21469
20821.4
20861.7
20323.3
21831.2
21727.4
22285.3
22210.1
23107.2
20042.6
23513.5
19549
20660.7
19891.9
20275.5
20607.6
21535.2
21811.1
22209.5
22377.7
23418.8
21661.7
21176.2
20788
19941.4
20993.8
21257.6
23130.6
20803.8
23080.9
19074.5
22668.1
20687.3
22618.1
24084.3
23335.9
21970.6
22698.3
22347.5
23979.8
22000.8
24106.4
22028.8
23731.1
22955.3
22685.2
21770.4
22400.2
22230.3
21804.8
23868.2
22334.3
23321
24402.8
21481.2
25136.5
25399.7
23656.9
25754.6
23180.1
24917.5
24088.9
23643.1
23881.4
25119.7
25047.6
24643.1
23158.1
23816.2
21473.3
21430.6
20229.3
21729.1
22520.3
21418
20122.2
22608.9
19570
23161.1
21660.3
21499.3
21259.9
19350.7
21380.4
19961.2
23112.9
21840.3
20957.7
22587.7
22934.3
22500
23319.6
22218.1
22551.1
21295.4
19236.2
21732.3
20394.3
21265.7
20719.8
20224.7
22446.7
18351.4
19523.4
22893.2
21607
23103.2
18851.1
22256.8
19670.4
20919.3
20901.8
17729.8
19972.8
18358.4
19515.8
21437.4
20334.4
21321.2
22988
21448.6
22028
22496.7
22270.1
21672.7
21862.7
21686.6
20224.9
20406.2
22722.6
18624.5
23313.7
23459.1
22630.2
23741.3
21557.4
23055.7
20065.5
21488.7
22720.1
23434.7
22393.9
22888.1
20781.4
22020.2
22650.7
23089.3
21737.5
22269.2
21253.7
21743.8
22506.3
21930.1
21031.2
21590.9
21306.2
23487.2
22320.1
21255.9
21426.8
21587.5
22148
20393.1
20994.3
21380.4
20144.6
20961.1
22780.8
22140.7
22051.3
21631.4
22424.5
21096.6
22916.2
21398.8
24209.4
24469.1
22469.7
22708.7
22293.9
22270.1
22152.8
23920.9
23587.8
23763.2
21758.2
19817
21776.3
21513.7
24246.8
24106.3
23360.3
21333.2
22553.5
23157.6
22309.2
22408.4
22684.6
23350.6
18256.4
18336.9
18548.9
20071.1
20961.9
21840.1
19272.6
21078.8
22418.9
22408.8
19747.3
23340
23161.9
22171.7
21181.2
22417.3
23261
21720.6
21355.3
21271.3
21592.1
19980.6
19343.7
21344.3
22302.8
22899.3
23053.9
24033
21188.6
23324.1
24400.2
19462.7
20283
21915.7
20672.4
21771.1
21279.1
18020.2
17972
18775.7
18355
17783
18629.9
19257.8
19670.8
19366.4
19888.9
19918.7
20298.9
19751.2
20491.5
21041
18813.5
19656.9
19714.4
19869.9
18988.3
19117.5
19542
20106.6
20026
20522.9
19485.3
19410.4
21352.9
19992.5
25865.6
23138.9
23727.9
22807.1
21884
21111.5
20364.6
23706.6
24312.4
25830.8
25169.7
26188.2
24883.6
22798.2
27042.3
27254.1
25291.1
23256.5
26110.5
27403.6
26717.3
20801.6
24013
24333.3
20772.4
19724.4
22939.8
20702.3
17015.7
22867.9
22150.3
19846.1
23257.5
17961.8
22859.2
20653.6
22526.9
21662.8
20909.9
18195
21885.4
15134.3
21736.6
12433.8
19488.6
21357.1
19827.5
42948.9
51368.9
51620.1
25581.6
35965.1
33428.7
46091.9
49978.8
41449.8
29873.3
35377
46790.4
40705.9
53274
50448.5
42346.7
45950.3
44369.9
44934.7
45232.2
39724.6
45813.2
45462
44449.6
48002.5
44303.2
46958.6
47932.2
49223.7
49463.6
48280.4
42930.5
43353.2
45192.6
43582.4
44385.2
43292.3
44165.9
41629.9
41933.9
38145.2
44590.4
37205
38662.2
38255
37262.1
41278.1
39970.7
38224.4
39870
40276.4
35122
36523.5
38269.1
39384.6
36189.9
38056.9
36532.6
40680.5
40392.6
41515.3
42116.9
42134.6
37788.2
37328.7
34270.4
37509.8
38602.2
34743.4
39333
37275.6
14950.7
15752
16189.1
19607.5
22008
19972.9
16917.3
22990.3
24521.7
22057.2
23134.2
24289.2
21798.2
20044.1
22990.9
26916.1
27141.1
27170.8
26547
21034.1
23130.4
20763.5
19938.2
22210.2
21542.5
20717.3
22230.2
21169.4
23975.2
20233.5
27557.9
24639.2
20909.9
23775.9
21552.3
22381.7
22814.8
22307.6
21709.2
19871.9
23493.9
21336.5
24538.1
21859
21696.5
21550
23383
23319.5
22756.9
23411.3
22752.5
20967
23915.6
21109.1
22609.8
26271.8
21081.7
23923.4
22639.5
20957.1
20207
25519.5
19263.3
22947.9
22542.2
20737.2
19412.1
27611.1
25688.9
25185.8
23404.2
22620.7
26475.9
26400.7
24638.8
23463.9
24760
26740.6
23004.5
20949.2
23955.2
21513.6
23893.3
19875
24089.8
26294.1
22636.3
20709.3
20407.3
25413.3
20419.9
20442.1
24791.1
21315.7
23329.9
20282.3
20471.8
20952.6
19041.8
19612.2
21550.3
21977.2
22338.1
23169.5
21658
21390.6
20436.2
22912.6
20508.2
23123.4
24240.1
22391.8
20927
24062.9
25853.9
20132.1
22327.2
22400.2
20087.4
23779.5
19857.5
20981.4
20000.5
22130.7
22209.5
21590.9
21129.1
24045.9
23593.6
22476
21981.4
21403.9
21050
22819.7
23060
20257.3
22968.2
19454
23323.2
21000.1
20425.9
20755
20064.4
22510.2
24561.8
21728.6
19620
21184.9
21281.8
21351.5
21014.8
19708.3
22066.6
22184.2
17719.8
18993.6
22016.4
21419.9
21667.1
20705.7
19992.6
19670.8
20891.8
22958.4
21604.4
26334.1
25209.6
22533.6
23792.8
23626.3
22226.8
23405.2
21106
24026
26228.9
22771.1
26625
24125.9
22866.5
21244.9
24418.3
20738.9
23488
21228.8
24291.7
24399.9
18041
23331.1
22866.7
24318.5
22101.9
17606.6
17468.8
21993.1
21632
23043.4
20942.4
20569.3
20700.9
19433.7
20916.8
20676.2
21294.5
19136.7
20706.1
21602.8
20726.1
19171.4
21270.4
20767.3
21256.2
20866
20965.7
21185.9
22174.3
21938.6
20702.7
21304.5
22187.2
20638.6
21933.1
21478.1
22081.5
21257.9
22464.5
22859.9
23040.2
21127.2
23127.3
22778.3
21055.7
22070.5
20937.6
23473.6
20871.2
21574.8
21834.1
21467.1
21572.2
21588.1
21359
20772.8
20592.8
20593.7
20616.2
21678.9
21127.4
21572.9
20645.7
21735.9
20159.4
21381.3
21615.3
22208.6
21826.9
20631.5
20883.5
22009.8
21393.2
20698.6
19346.3
22222.5
21774.2
22058.9
20356.8
20688.5
19847.2
21719
22347.4
21326.5
20156.1
20639.4
22179.7
19841.6
21822.6
20555.5
23003.2
22335.8
22922.2
21631.4
22888.5
23142.6
20428
19377
21719.3
22512.3
19910.3
23045.6
21107.2
22361.7
20923.6
21620.4
23182.2
20588.3
20844.3
20070.5
20339.2
20831.3
20324.8
20440.6
20753.1
19755.4
20555.2
20913.3
19862.4
22199.3
22551.6
21935.2
22782.7
21031.9
22895.9
21700.5
21757.1
21815.4
21966
21618.3
21968
20601
21620.3
20930.4
21925.5
22292.7
21657.5
22222.8
20384.4
21426.6
22023.2
21903.3
21315.5
22156.9
19885.3
21725.4
21357.6
21957.1
21377.8
21779.7
19563.2
21195.3
21247.5
21390.6
21688
21914.9
20003.8
20374.6
19277.1
19566.9
20740.1
20792.7
21128.8
21498.4
21537.9
21055.4
21501.5
21274.5
22783.8
21607.2
20674.9
20597.5
21794.6
23064.3
23676.5
23081
20151.3
20581.8
21751
21574.5
21677
23292.1
19942.5
23598
23907.4
23352.8
22344.8
21647.8
21823.3
21877.7
22361
21173.1
21618.5
21717
22684.1
23094.8
21434.8
21515.6
21301.1
22871.8
21709.1
21713.6
22132.5
22449.2
19920.2
19610.7
20833
19262.8
21540.9
21000
20501.2
23384.2
20137.5
21080.2
21748
20099.2
21103.6
19337.2
19565.2
18799.1
20894.6
20361.5
21085
22902.7
19394.4
18492.2
21728.5
24034.9
21793.3
20536.3
19260.9
23227.3
20443.5
20809.7
20197.3
22712.9
19694.2
20653.5
22097.9
19481.5
22087.6
22369.2
19420.5
19112.3
20596
21242.6
19690.3
21797.2
22892.1
21795.1
23690.1
23382.3
23428.4
22076
22902.3
20934.9
21997.6
22536.4
23048.6
22933.5
22864.2
22186.9
24175.8
25438.2
23553.2
24291.1
21184.1
22176.2
23200.1
21331.4
21617.3
20742.6
22139
20521.1
24467.3
22231.4
20844.9
18000.4
19553.8
20707.9
22340.8
21260
19547.2
21158.5
22770
21493.2
21704.6
22649
21641.7
23025
21514.1
20963.9
23122.5
22133.6
23124.1
21133.8
20988.7
21135.5
20632.2
20279.5
21865.8
20940.4
20452.9
21071.9
23277.3
19326.8
23651.9
19863.1
20079.7
22104.7
22089.9
20151.8
22884.1
20657.5
21005.2
24066.8
24113.9
20558.6
20415
22518
20838.4
22731.3
20939.7
23813.4
21459.2
22477
22478.6
23474.5
21259.2
21312.3
22919.3
21272.1
20943.2
22291.8
21780.8
22148.3
22809.1
18627.9
19999
21788.3
18093.4
19133.7
20072
23322.9
22326.1
21872.8
20024
19909.9
21979.6
23487.6
18305.5
23299.5
22422.3
21617
20244.5
20703.9
21051.2
20928.9
20736.8
20776.1
21796.3
20189
19841.7
20087.3
19787.8
21578.4
18984.1
21741.4
20490.6
21538.6
21483.9
21637.7
20863.2
20517.6
22794.4
22836.5
21372.4
21346.3
20810.4
20626.8
20645.1
20653.3
18802.7
21811.3
22125.9
21031.1
17818.9
19065.3
20743.1
18644.6
20785
21453.7
18979.9
18748.6
19469.3
20261
22762.9
21388.8
23174.3
23662.6
20025.3
20589.3
21300.7
22399.6
23160.6
22957.2
23304.4
21301.4
23826.3
22071
23078
22022.4
23911.6
21313.8
21283.1
23199.5
22829.5
21345.4
20915.4
23853.9
22316
22782.2
23012.8
21238.4
22283.3
22289.6
22240.9
21746.6
21282.1
21207.8
22350.6
23062.3
22755
21922.5
19492
21361.6
20175.5
21862.8
18269.9
19411.3
18986.3
21713.1
19438.7
22362.5
19064.6
19777.7
22363
19804.8
21088.6
18966.4
19740.1
21364.8
21424.8
21000.3
20809.6
21420.9
21305.4
18932.2
20937.8
19443.8
20572
20629
19697.4
20731.8
20856.5
19830
20693.3
20212.8
20184.1
19384.9
20255.4
19515.5
19646.4
19583.5
19551.9
20763.4
21843.5
20049.6
22278.1
21923.2
21178
21487.3
21292.5
21985.3
21003.1
20072.5
19474.3
19855.1
17763.4
18215.8
18537.7
19425
20698.8
22203.8
21796.3
21784.1
19749.1
23821.6
23004.1
20478.6
22873.8
21327.5
23241.7
21918.4
22699.4
22425.6
22351.2
21927.4
19137.5
21386
22478.1
24390.5
22230.3
20563.6
22654.1
20886.5
22009.8
19915.5
22605.4
23256.9
21115
20508.4
23305.2
23008.6
21172
22065.9
23027.8
22640.5
20430.8
22448.8
19524.9
19457.6
22237.9
19593.4
22902.2
20263.6
20324.3
23129.2