# vtk DataFile Version 3.0
Happy Go Lucky
ASCII
DATASET POLYDATA
POINTS 14290 float
-0.605369 0.44022 -0.696332
-0.63617 0.444189 -0.708571
-0.608612 0.457042 -0.719518
-0.632088 0.47193 -0.725865
-0.650735 0.47496 -0.70179
-0.6097 0.475641 -0.733482
-0.642908 0.498155 -0.717852
-0.621475 0.498447 -0.74031
-0.589607 0.469296 -0.697931
-0.593302 0.473681 -0.723889
-0.593116 0.489825 -0.740093
-0.580958 0.49229 -0.717288
-0.632802 0.548725 -0.7351
-0.615596 0.556413 -0.754174
-0.6439 0.56856 -0.718456
-0.597381 0.563252 -0.764751
-0.596663 0.514257 -0.753053
-0.646413 0.519169 -0.708592
-0.636458 0.522244 -0.728305
-0.619366 0.529474 -0.748716
-0.597525 0.541072 -0.760628
-0.644726 0.541094 -0.712763
-0.62919 0.575587 -0.742926
-0.609703 0.581687 -0.762146
-0.660892 0.592649 -0.696784
-0.642022 0.596794 -0.728748
-0.575371 0.511118 -0.737165
-0.575257 0.519281 -0.711517
-0.573934 0.531981 -0.755522
-0.570284 0.537417 -0.730845
-0.572836 0.546891 -0.706921
-0.567741 0.552908 -0.746741
-0.577299 0.556441 -0.765641
-0.569105 0.564244 -0.727426
-0.57346 0.575302 -0.702674
-0.566648 0.576196 -0.751071
-0.584103 0.581912 -0.771569
-0.571329 0.596372 -0.726886
-0.703485 0.680289 -0.700259
-0.623315 0.631072 -0.758547
-0.645282 0.645637 -0.741026
-0.598361 0.646463 -0.768966
-0.666715 0.648991 -0.717737
-0.688648 0.655198 -0.698687
-0.623326 0.659562 -0.759858
-0.596054 0.663218 -0.703467
-0.603831 0.683635 -0.713654
-0.622116 0.684929 -0.757685
-0.663696 0.689982 -0.742044
-0.597816 0.698652 -0.741624
-0.660259 0.666354 -0.733417
-0.644307 0.674271 -0.74978
-0.596928 0.675262 -0.758605
-0.680066 0.677193 -0.718755
-0.624714 0.602691 -0.752322
-0.598674 0.611743 -0.771252
-0.638323 0.619745 -0.740734
-0.654479 0.622157 -0.720206
-0.674063 0.628666 -0.696961
-0.577681 0.653833 -0.748011
-0.576162 0.622503 -0.713964
-0.57261 0.626714 -0.738233
-0.574379 0.631871 -0.764337
-0.576602 0.604374 -0.696201
-0.568005 0.605189 -0.758684
-0.590212 0.67122 -0.729152
-0.581421 0.646635 -0.719835
-0.707092 0.703338 -0.724087
-0.635332 0.707167 -0.754315
-0.615668 0.711867 -0.710789
-0.675934 0.711436 -0.722997
-0.652066 0.717002 -0.729187
-0.654814 0.717737 -0.701568
-0.681799 0.721923 -0.695892
-0.682829 0.359503 -0.597258
-0.656642 0.362622 -0.619779
-0.631216 0.372656 -0.605281
-0.635664 0.379095 -0.632151
-0.680378 0.381361 -0.620217
-0.662201 0.382095 -0.641766
-0.68822 0.386956 -0.59911
-0.640806 0.391819 -0.655794
-0.620523 0.393955 -0.615611
-0.677132 0.404322 -0.634992
-0.600499 0.437952 -0.631846
-0.645547 0.409128 -0.675697
-0.610932 0.410682 -0.598843
-0.658582 0.451239 -0.685591
-0.595321 0.451984 -0.67133
-0.678509 0.469736 -0.61972
-0.610081 0.415722 -0.623255
-0.684343 0.487805 -0.605046
-0.677778 0.489336 -0.625188
-0.662347 0.482665 -0.669995
-0.672015 0.474301 -0.641855
-0.683784 0.467448 -0.600775
-0.620587 0.399176 -0.64054
-0.667487 0.452307 -0.658556
-0.674758 0.450116 -0.633678
-0.68068 0.4491 -0.610783
-0.664443 0.404522 -0.658173
-0.625513 0.420326 -0.689603
-0.606539 0.427676 -0.67123
-0.648859 0.427938 -0.690024
-0.678452 0.427508 -0.622763
-0.663517 0.427789 -0.671622
-0.672486 0.42774 -0.647266
-0.683759 0.428305 -0.598814
-0.600896 0.434165 -0.606177
-0.60054 0.439012 -0.653301
-0.609114 0.420401 -0.647582
-0.682839 0.405744 -0.610478
-0.62073 0.406099 -0.666057
-0.59319 0.458378 -0.645483
-0.587239 0.478823 -0.636865
-0.591558 0.461591 -0.616642
-0.586055 0.481611 -0.664075
-0.585563 0.491323 -0.617174
-0.732765 0.594459 -0.595748
-0.714328 0.590023 -0.613583
-0.696796 0.582095 -0.633102
-0.700874 0.566613 -0.613857
-0.695694 0.529834 -0.597177
-0.681071 0.573606 -0.653248
-0.66738 0.567551 -0.674464
-0.653679 0.531161 -0.691707
-0.672268 0.549228 -0.657043
-0.677453 0.530688 -0.63855
-0.664067 0.520573 -0.666762
-0.654661 0.557587 -0.694737
-0.686163 0.557385 -0.634933
-0.653387 0.50424 -0.692696
-0.683743 0.512921 -0.615897
-0.672564 0.501718 -0.643062
-0.661857 0.545162 -0.676644
-0.690787 0.541771 -0.615464
-0.676254 0.588374 -0.669987
-0.606334 0.591621 -0.598458
-0.597052 0.591588 -0.623455
-0.69159 0.597592 -0.652792
-0.583272 0.501575 -0.641663
-0.577761 0.583473 -0.675861
-0.580797 0.500432 -0.690415
-0.579822 0.563709 -0.656847
-0.585763 0.569148 -0.631447
-0.593582 0.5729 -0.606915
-0.575692 0.556202 -0.682104
-0.585007 0.549818 -0.613023
-0.581816 0.544535 -0.638691
-0.579347 0.538353 -0.662864
-0.576724 0.528871 -0.686602
-0.586445 0.589021 -0.649345
-0.581564 0.523766 -0.646002
-0.583064 0.521249 -0.620607
-0.581177 0.512488 -0.665372
-0.760161 0.648997 -0.63856
-0.740589 0.651894 -0.653368
-0.732824 0.61182 -0.615108
-0.754597 0.610727 -0.597401
-0.71947 0.645566 -0.662464
-0.782891 0.650586 -0.616712
-0.711332 0.606816 -0.633985
-0.711269 0.661406 -0.682514
-0.69634 0.638115 -0.677684
-0.731735 0.6318 -0.638599
-0.757383 0.629416 -0.61808
-0.733705 0.667215 -0.669544
-0.779139 0.627435 -0.598307
-0.704889 0.62271 -0.65572
-0.757344 0.67109 -0.655803
-0.768025 0.674661 -0.595575
-0.773613 0.677464 -0.62993
-0.72366 0.687985 -0.684449
-0.716778 0.688207 -0.608072
-0.6977 0.698754 -0.61235
-0.752547 0.698189 -0.606413
-0.764907 0.698681 -0.641894
-0.648612 0.64996 -0.609444
-0.60739 0.658761 -0.679142
-0.623189 0.659401 -0.655
-0.643342 0.662835 -0.634343
-0.665966 0.668523 -0.618734
-0.624434 0.674698 -0.673321
-0.690819 0.677389 -0.609825
-0.660288 0.67857 -0.638531
-0.633879 0.628465 -0.599145
-0.600758 0.613361 -0.640647
-0.613106 0.612218 -0.612839
-0.682912 0.611801 -0.674614
-0.603318 0.636713 -0.65994
-0.622212 0.638751 -0.629578
-0.613943 0.679916 -0.693083
-0.644837 0.68144 -0.658461
-0.680239 0.686186 -0.631088
-0.623862 0.698183 -0.675643
-0.587372 0.610793 -0.668746
-0.587605 0.635765 -0.690826
-0.754036 0.701236 -0.673509
-0.696423 0.707274 -0.645174
-0.72546 0.708235 -0.634778
-0.707438 0.710245 -0.692259
-0.716966 0.715976 -0.667873
-0.658548 0.702991 -0.639926
-0.661341 0.709108 -0.67549
-0.689087 0.718231 -0.67047
-0.24178 -1.06683 -0.519403
-0.208262 -1.06021 -0.505033
-0.292348 -1.06723 -0.50818
-0.125304 -1.06843 -0.516831
-0.172455 -1.06488 -0.511891
-0.0327772 -1.06187 -0.506258
-0.696661 0.35515 -0.567583
-0.711108 0.352017 -0.513497
-0.7051 0.353782 -0.539852
-0.712211 0.326529 -0.502762
-0.703676 0.328578 -0.527681
-0.704645 0.378117 -0.522259
-0.699706 0.380845 -0.549866
-0.636567 0.344366 -0.530656
-0.678356 0.318806 -0.528258
-0.669606 0.339276 -0.57208
-0.639811 0.347044 -0.560583
-0.69419 0.313487 -0.512796
-0.659312 0.329983 -0.54495
-0.634 0.341396 -0.502156
-0.672518 0.312943 -0.504049
-0.688985 0.331302 -0.550698
-0.647466 0.351797 -0.591262
-0.653255 0.325647 -0.517626
-0.620906 0.363702 -0.513336
-0.623804 0.368308 -0.541998
-0.625413 0.374489 -0.574107
-0.605687 0.38198 -0.495882
-0.693862 0.382559 -0.577461
-0.609898 0.387679 -0.522565
-0.620052 0.390747 -0.593663
-0.612287 0.394272 -0.549688
-0.709649 0.498109 -0.534386
-0.7159 0.494299 -0.512786
-0.698761 0.455107 -0.541478
-0.706843 0.470705 -0.521441
-0.699722 0.476987 -0.550298
-0.704191 0.399371 -0.50321
-0.699207 0.408736 -0.530531
-0.703256 0.42343 -0.506882
-0.701007 0.440126 -0.52365
-0.600797 0.419691 -0.55532
-0.688843 0.429969 -0.574286
-0.694608 0.432541 -0.54876
-0.601404 0.42742 -0.580499
-0.692456 0.454269 -0.563551
-0.686173 0.4514 -0.587978
-0.61216 0.402876 -0.575139
-0.6882 0.406559 -0.586751
-0.693357 0.406727 -0.561028
-0.690986 0.478776 -0.579573
-0.597581 0.406094 -0.504146
-0.599364 0.412353 -0.529796
-0.584393 0.493802 -0.551238
-0.585351 0.492878 -0.575507
-0.583672 0.48474 -0.524678
-0.582843 0.479762 -0.498405
-0.587129 0.479201 -0.593108
-0.587466 0.47151 -0.56831
-0.586107 0.465118 -0.542868
-0.59269 0.452962 -0.587454
-0.590831 0.438178 -0.536062
-0.590196 0.431345 -0.510552
-0.592591 0.445552 -0.561497
-0.585343 0.458209 -0.516942
-0.799356 0.59268 -0.510476
-0.742591 0.574458 -0.562777
-0.786237 0.565295 -0.515226
-0.759197 0.564667 -0.537279
-0.720683 0.562263 -0.575056
-0.704865 0.551809 -0.594467
-0.731925 0.580726 -0.580543
-0.728607 0.551732 -0.551362
-0.768877 0.587688 -0.559359
-0.762116 0.546497 -0.509659
-0.736615 0.54033 -0.525617
-0.70746 0.533821 -0.572457
-0.741884 0.526727 -0.501711
-0.716187 0.524807 -0.543282
-0.722978 0.515749 -0.51832
-0.727444 0.504895 -0.49616
-0.789972 0.584298 -0.538158
-0.716807 0.57486 -0.594889
-0.750725 0.593007 -0.578697
-0.702049 0.503742 -0.561219
-0.602443 0.565046 -0.562868
-0.693385 0.508059 -0.588467
-0.602917 0.546987 -0.516384
-0.596504 0.544417 -0.541711
-0.618503 0.567075 -0.510271
-0.595425 0.527221 -0.499125
-0.609884 0.564963 -0.534459
-0.601185 0.575192 -0.586264
-0.62352 0.579926 -0.527694
-0.618674 0.58327 -0.54903
-0.635971 0.58659 -0.510205
-0.613065 0.588068 -0.573947
-0.635606 0.596139 -0.534983
-0.586264 0.505025 -0.509661
-0.584744 0.505207 -0.594902
-0.585324 0.531429 -0.592432
-0.589325 0.539647 -0.566927
-0.5918 0.556298 -0.588062
-0.591318 0.525649 -0.523794
-0.586965 0.521226 -0.547253
-0.584974 0.514281 -0.571199
-0.585335 0.506354 -0.530943
-0.795256 0.611953 -0.52977
-0.707373 0.671037 -0.588258
-0.751792 0.670776 -0.575345
-0.784908 0.612832 -0.508786
-0.764957 0.622697 -0.500871
-0.710276 0.628529 -0.501457
-0.776254 0.628761 -0.523461
-0.793902 0.629669 -0.573413
-0.788576 0.631868 -0.546148
-0.698411 0.634499 -0.526834
-0.7522 0.639 -0.51963
-0.724838 0.641177 -0.52098
-0.766151 0.645632 -0.540664
-0.779042 0.649905 -0.562188
-0.712231 0.649255 -0.545221
-0.739856 0.652599 -0.540534
-0.786714 0.653235 -0.586668
-0.697634 0.655739 -0.568777
-0.756139 0.660275 -0.558647
-0.769346 0.663515 -0.574868
-0.728144 0.664801 -0.565583
-0.738246 0.630832 -0.498083
-0.792491 0.606473 -0.556873
-0.774967 0.607252 -0.579017
-0.736104 0.679455 -0.588869
-0.629993 0.602299 -0.560505
-0.657686 0.606474 -0.516891
-0.622711 0.607576 -0.586288
-0.65034 0.61386 -0.546648
-0.642859 0.620251 -0.572893
-0.684297 0.619797 -0.508879
-0.673769 0.624005 -0.535221
-0.664508 0.630102 -0.560386
[...]
POINT_DATA 14290
SCALARS scalar float
LOOKUP_TABLE default
21278.5
20090.6
20871.3
20681.8
20199.6
22022.3
22150.1
22840.7
21778.5
21973.9
22251.1
22966.4
23657.2
25072.3
20860.3
25038.3
23511
23038.3
23722.5
24208.1
25254.4
23084.4
22545.7
23482.8
18446.5
19480.3
23135.3
24275
22747.6
25402
23940
24611.6
23029
24640.7
21723.3
22835.5
21253
22172.3
21306.7
21067
21463.6
19117.5
20311.7
20643.1
21268.4
21657.3
21474.6
19366.5
19041.6
15985.8
21506.1
21081.2
18757.5
21317.4
21518.9
19771.3
20509.7
18811.6
18641.2
19659.8
20471.1
21120.7
17693.7
19382.7
19303.6
21653
21476.1
22416.4
20828.4
21661.9
30374.9
27267.1
30673
32440.4
18941.4
19624.2
21762.1
23063.6
22159
22275.8
23073.1
23910.7
24915.6
24911.7
24563
23503.7
23877.4
21020
22777.9
25283.3
25593.6
24057.6
23446.1
19701.2
22844.9
25401.1
25643.1
23215
25521.1
26335.1
23904
21958.1
24119.1
21770.5
26631.8
23364.3
25509.5
25945.5
23375.8
24751.2
26112.3
25727.3
23963
23055.5
22255.9
22666.6
21460.9
22649.9
23598.7
23103.8
22700.5
23305.4
21696.5
22398
21666.2
22409.3
22164.2
21507.7
20632
21640.5
22690
20989
22310.8
21048.4
22127.3
22381.8
20788.8
23270.9
21807.8
21407.9
22394.6
20196.9
22273.9
22244.4
22852
23748.3
22151
23481.2
23327.7
22970.3
22889.5
20592
23038.9
23071.2
22298.7
20049.1
21277.1
22179.5
23489.6
21637.2
18477.6
21501.5
21675.1
20466.1
21271.8
21834.7
21178.1
21927
20823.6
18703.5
21884.2
17434.8
20454.2
20847.4
18600.1
16651.8
14411.9
20227.9
20385.5
19719.9
20480.8
21842.1
20997.1
22074.4
21961.6
20266.9
18726.6
20359.9
19608.7
18073.2
18251.5
21469.6
21290.1
22325.9
17570.6
18470
19322
18690.2
30655.5
24618.2
32218.8
29364.5
24505.7
31865.4
32867.1
23586.9
24792
22752.3
23583.6
24376.7
18750.8
19194.6
22207.8
20929.7
21802.8
21586.4
20851.6
20558.9
19657.7
22201
18327.1
18150.9
22142.5
20102.5
21108.7
23243.7
19953.7
18206.6
21925.4
19947.3
18960.1
20128.7
21646.1
21672.3
20326.6
23047.5
20126
20755.7
21675.6
21565.7
20978.9
21313.1
20717.4
20385.1
20354.6
20739.7
21314.7
23813.1
21788.5
22279.1
22940.5
25121.4
21814.5
24274.6
21801.1
22956.9
22139.4
21148.6
24122.4
23714.6
22815.1
20389.8
22866.2
23011.1
22502
22337.2
21512.1
21707.1
21966
21396.4
19295.3
21327.2
19776
19137
21978.2
22566
23206
19246.8
22041.1
20257.3
19010.2
20263.6
21572
19419
21077.1
22498.4
19793.1
23671.3
23506.8
20101.1
24326.7
21525.1
23290.8
24152.1
22731.6
22160.6
23958.6
24308.4
23494.1
24181.4
22372
24174.5
23096.2
22581.1
23265.9
23412.8
23864.5
23964.6
23961.2
24413.1
24015.8
24091.8
21550
21873.9
24029.1
21825.8
21672
21276.7
23958
21356.4
23657.4
21453.5
23049.1
21702.9
25155.4
24931
21991.6
23367.9
21654.9
21913.4
25057.5
24579.8
22938.4
21105
21402.1
23252.7
22145.5
23435.9
21746.1
22489.9
22487
22263.9
21381.2
21779.5
22298.3
21495.7
22018.7
22074.1
21759.2
20565.2
19139.5
23979.7
21404
19802.5
21947.4
24910.6
23787.7
27476.4
23411.5
22719.8
26079.2
28315.3
24269.3
25110.4
23265.7
28069.4
25401.8
18475
26542.5
23619.9
25710.5
25119.9
23800.1
19011.8
18790.6
25833.6
28312.6
28377.6
22938.8
18914.9
17262
18845.7
24236.2
20672.3
23092.8
22064.4
23515.9
27286.1
24324
22290
21953.1
21682.7
19641.4
29088.6
22092
27462.4
27106.1
20722.7
22047.5
26185.8
24698.7
24930.5
23614.9
24093.8
21943.1
22417.6
22400.3
22534.3
21521.6
23531.4
22154.1
23305.1
12766.9
13823.1
13632.3
12901.1
22242
22021.2
22219.8
21262.1
19117.1
22610.1
17597.3
19629.9
23422.2
21762.8
21564.4
18843.8
18893.5
19532.8
19971.2
21833.2
20741.9
23714.2
20557
20451.7
20822
22250.9
20414.4
20179.4
22950.8
21422.3
21778
23045.8
20838.8
24156.8
25420.2
23893.5
22470.3
22256.6
23313.8
20695
22212.5
22427.7
23836.9
23915.1
21290.1
24641.2
21086.1
25082.7
24172.1
23529.3
21799.3
21330.9
22107.6
21418.6
19637.8
20260.7
22246
21948.6
21184.2
20156.9
19476.7
20235.6
19597.8
20395.9
20409.8
20099.5
21559.2
21635.7
20962.1
19930
19590.8
19079.1
20729
20962
20352.1
21216.3
23636
25130.2
22384.1
24314.9
23858.6
25021.2
25016.6
25101.9
24005.6
23657.2
22740.5
23000.2
22144.4
23365.8
21809.9
22850.1
23601.6
22252.5
20301.8
24459.5
22376
21500.7
20640.5
19975.3
19237
18582.9
21815.4
21933.7
21975.6
19194.1
26230.2
25166.7
25983.9
22912.6
22156.7
22822.1
20234
24067.6
23911.7
25782.1
25256.6
25370.3
23292.6
20839.3
25404.5
24295.9
20336.3
23785.5
20199.5
22369.8
24491.8
23470.9
19400.3
21120.3
23144.6
21290.1
22932.6
24283.3
20063.9
21784.7
23068.9
20550
20520.2
19032.9
19438.5
23477.2
22500.2
21096.7
22852.3
21279.3
23610.4
22560.4
23649
24601.6
22913.3
23232.9
23046.2
21366.8
22850.2
20750
23355
23915
23445.2
23246.1
20889.2
23224.2
22992.8
23166.6
22939
20304.7
22094.2
24026.4
21626.9
22327.4
23380.4
22365.2
21795.7
22249.3
24924.1
19239.7
19978.3
19613.3
18484.4
18887.5
19353.7
18168.8
19126.7
19550.9
18959.1
18483.4
20094.9
21032.6
18785.7
20416.8
20926.9
21937.5
21580.7
21632.1
20679.3
20575.3
21188.5
19686.1
20204.8
20974
20749.3
21038.9
22577.5
21111.2
23876.9
22294.2
22070.7
21756.1
21082.4
24645.3
23299.6
21331.7
20268
22056.2
23296.9
23420.7
21972.5
24460
21683.4
25026.2
21958.6
19849.3
20087.7
20310.1
18516.1
19630.7
18483.6
19008.5
19278.7
20243.8
20665.3
20412.3
20814.9
20518
19897.1
19637.2
20750.5
19280.8
19920.1
19698.2
20544.6
21873.5
22065.8
22032.2
21622.4
20933.4
19858.8
19634.6
21017.8
18525.5
20120.6
22432.1
21456.4
20177.7
20687.3
20696.9
21767.8
20220.5
19097
21792.9
22282.3
22269.4
20445.3
22283.3
20596.9
21381.5
21742.7
21927.1
21414.9
22650.6
22459.6
21060.4
20393
22093
22523.2
18919.6
22275.4
21522.9
19221.8
19586.8
22229.6
20629.6
20017.9
21934.8
22397.2
22734
22184.6
19007.7
25212.8
25479.3
24588.7
23266.7
20091.6
21603.2
25041.8
23731.9
23049.1
22342.4
24861.7
25729.5
25134.5
23558.2
24519.4
24523.3
25110.2
23827.4
25081.6
19079
20573.3
20965.3
19127.4
21964.8
18778.7
19810
20691.5
20609.6
23202.2
20568.4
20489.7
20635.9
19460.2
20451.2
22353.4
22304.3
22463.1
21468.4
21141
23110.4
22941.6
21749
22554
22586.6
21196.1
20402.1
21439.5
22582.7
21653.3
20173.7
21660.6
19916.8
22194.2
20430
21181.3
20318.5
20956.3
22174
20900.3
21048.1
21369.5
21068.3
21292.4
21089
20972.5
21947.4
20347.8
18773.8
22260.9
20322.5
20509.4
20183.1
19572.8
19649.7
20308.3
21237.3
19629.8
21549.6
19087.1
22612.9
20739.4
20630.6
21287.2
21889.5
22270.8
19961
22291.4
17632.4
19639.2
22425.8
23184
23854.1
22052.9
24110.6
22697.9
24730.4
21252.5
19544.2
24040.1
21485
24231.2
23597.3
22641.5
23704.3
23183.8
20620.9
22614.5
20332.5
22632.9
21096
22276
21737.5
18883.6
23172.9
22241.8
20581.7
21145.5
21099.1
19592
17576.7
16887.3
21826.8
20734.7
23980.2
23177
20093.2
21045.9
22268.9
21129.5
21830.4
22336.9
22135.2
22368.4
22170.8
22270.9
20789.4
21370.1
20012
21451.2
21602.5
18740.2
21050.3
22000.3
24747.1
23258.6
24153.2
21395.3
22741.3
24614.2
23627
22567.7
23420.9
22323.7
22449.1
20683.9
20423.2
23156.8
21647.4
24731.1
22888.1
22197.9
19390.6
20209.5
22775.1
22208.6
20821.2
22144
20644.3
19896.5
19586.6
20024.2
20120.7
22546
18391
19326.2
20318.2
18335.6
19488.1
20561.4
21191.3
18316
19833.6
20288.4
20371.3
18367.7
17810.5
19503.6
18052.6
22146.7
19445.1
21794.4
17927.4
22778.1
21791.8
21582.3
22585.4
19193.9
22045.1
21210.1
23330.3
23087.2
19874.6
25113.8
21073.7
24373.4
21296
21927
23322.5
23400.1
24919
22489.8
20805.6
24640.2
20623.9
21013
20528.9
18988.8
21617.8
22819
22034.3
20604.5
20333
19879
21560.9
23536.3
22880.4
23113.8
22909.3
23906.7
21427.1
21902.7
23701.3
22797
20761.7
23080.3
22995.1
22108.6
20922.8
18590.6
19905.4
20596.2
21105.9
19693
21731.8
20390.5
21226.2
19269.1
21856.3
22006.5
22233.2
22689
24966.8
22855.3
22819.9
24006.4
26368.2
26912.7
22994.2
22835.7
25163.5
21608.6
28439.1
23284.6
27891
26175.8
22493.1
27359.2
22566.8
22828.4
22722.9
26676.5
22393.8
26874.9
22018.1
28026
27662.1
29695.1
29710.4
22547
28827.8
29242.2
30537.1
27682.2
27125.9
26055.4
28652.3
29916.7
26390.9
29653.2
31506.3
27599.9
30582.5
28406.3
28863.9
27045.7
26441.4
30397.8
27362.1
24078.7
26965.9
23885.7
24146.3
25298.9
23923.1
29634.3
27360
28838.4
28922.7
29154
31385.4
30379.6
28999
25706.3
28719.8
28271.1
27117.9
35772.2
33285.4
27332.3
27632.4
34649.3
26850.9
26722.1
29714
29728.9
29197
24664
27742.9
26998.9
25405.2
31272.3
35482.7
29791
26933.3
27936.9
23908.6
34098.9
30916.9
28201
22651
25061.9
22619.1
28205.9
25793.7
25610.9
26852
28752.7
27910
21936.8
30375.9
28176.7
29511.9
23043.3
27012.9
26474.2
26780
26841.1
22196.7
21239.4
21940.2
23981.3
22566.9
22583.9
15067.9
23245
22688.3
22099.4
18939.4
22028.1
23959.5
19282
17580.9
21798
20113.9
16409.7
22328.5
19455.9
20439.2
24985.1
22168.2
21333.2
22974.4
25825.5
26149.9
23986
24873.5
24079.8
24071.2
22067.7
21163.1
21393.3
25032
18175.2
23454.7
21727.8
17272.7
22483.4
21802.7
20727.3
22830.2
20621
21734.5
21628.1
21036.9
23042.5
22358.5
21943.3
20257.4
22343.6
21245.8
19465.7
21186.9
22296.4
21581.9
19849.2
20060
23027.6
19116.8
22796.9
22750.1
23564.8
19842.9
23235
21107.1
21549.1
22102.9
21965.5
24128.1
22490.7
19981.5
23358.6
23495.2
23679.3
23624.1
24311.8
24238.6
25283.2
24562
22163
22841.6
21314.3
19858.4
21002.3
20876.2
23928.6
21370.2
22625.1
21683.2
22032.8
18643.7
19846.6
20312.7
22097.1
19141.8
19119.9
18576.3
18122.4
18617.3
25137.6
21155.3
23975.8
20529
20976
24869.5
23663.5
19983.7
21389.7
22978.2
17672.5
17570.4
17240.2
17559.4
19088.3
23138.8
20160.5
21290.7
22664.7
20824.2
21550.3
19731.2
21357.6
21306.3
19884.7
22546.1
21524.7
20972.4
22724.1
22137.7
23849.5
24811.6
22417.7
19422.1
21818.8
18937.4
21318.4
18977
20051.2
19294.1
18214.7
19321.7
19034.7
20869.6
18552.4
20205.8
19970.2
19777.5
21126.3
21108.3
21907
22954.4
23951
21870.6
21908.4
23503.8
22598.8
22344.3
22277.1
20962.4
20366.8
21189.6
22605.4
23961.8
22640.1
24085.1
24118.3
23360.6
22364.5
23428.9
23285.8
23071.5
22709.8
21309
24416.2
22170.4
23569.4
20556.1
20017.5
22095.7
21485.3
21513.6
22799.5
21782.4
23490.4
21797.3
21405.6
20483.1
22755.5
21754.9
21790.4
23680.5
22020.7
21809.6
22055
22152.4
23792.2
23387.5
24874.5
21512.5
23251.7
19284.2
19027.5
24371.3
23396
24487.7
25210
26118.1
26238.2
25084.1
23760.8
25204.3
26118.8
25966
24712.8
23903.1
22226.7
23961.3
22962.5
21495.7
21131.3
23982
23915
23371.2
24256.8
24719.1
23785
22685.2
21991.3
24121.9
22751.2
23951.5
25412.9
24933.9
22481.2
22864.9
24121.5
25317.7
22480
21624.4
22130.9
23190.1
24004.2
22650.1
22717.3
21585.1
21834.6
22217.8
22693.8
22311.3
21988.8
22511.4
22577
23205.8
22002.1
21012.1
21480.1
22850.8
23523.3
21930
23868.6
24018.7
24739.5
22244.2
23054.1
20525.8
22024.4
22716.2
22251
22614.7
22400.2
24106.4
24961.8
23118.6
21380.5
25268.6
24213.5
25389
22961.2
21926
20873.2
21354.4
21995.5
22426.2
20820.9
20018.2
20670.6
19861
20625
20440.8
20827.5
21028.8
19527.3
23945.7
19830.5
21275.2
20830.1
21222.6
23516.4
21941
20779.5
21390.6
20279.4
20754.7
19110.8
19067.8
19801.3
20150.3
20015.9
22145.4
20081.6
19268.5
19214.4
20061.8
19172.2
23495.2
19825.6
22167.9
22161.7
21723.5
19879.4
20277.4
24253.2
20258
20543.5
20750.6
19389.8
18994.2
20495.2
20452
22106.1
19373.1
19278
20246.3
21552.4
20005.6
20892.3
21967.7
21875.7
20989.7
20832.5
20199.6
20617.1
23437.9
22561.9
22251.4
21338.9
21879.2
22557
21765.8
21909.3
22593.8
22550.3
23394.1
23797.5
21642
22398.5
23171.4
22961.2
23338
23659.5
22610.8
21593.2
22373.4
20803.4
20521.9
21657
21726.7
21465.2
21209.3
21399.5
21596.2
21444.7
21141.7
22136.5
20730.3
21346.8
20829.9
20860.3
22457.3
22434
22021.5
21821.8
20318.5
21719.5
22282.5
22208.7
23107.6
20040.8
21429.8
21172.3
20784.8
23079.2
23510.8
19940.5
20991.4
21255.6
20801.4
19070
19545.8
20657
19892
20271.9
20603.5
21527.5
21808.9
22208.8
22375.2
23415.2
21663.5
23130.7
22665.6
20684.4
22617
24083.2
22952.5
23321.1
22679.1
21765.2
22397.1
22223.8
21800.4
23864.6
22331
23333
21958.7
22694.5
22347.9
23976.4
21997.5
24100.6
22025
23726.1
24398
23809.4
21468.5
21476.5
25131.1
25393.2
23652.2
25750.6
23179
24913.6
24084.7
23636.6
23875.8
25115.8
25041.5
24637.1
23153.8
20227
21724.5
22520.2
21417.3
20121.3
22606.4
19567.4
23112.5
21837.5
20956
22585.4
23157.5
21657.6
22932.1
22498.7
21498.5
21259.6
19349.3
21378.9
19958.2
23317.8
22215.6
22549.2
21293.3
19233.4
21730.6
20392.3
21263
20717.7
20222.6
22445
18347
19521
22891.3
21605.3
23100.2
18851
22255.6
19670.3
20918.9
20901.3
17727.5
19970.2
18355.8
19512.7
21435.2
20332.1
21319.4
22986.4
21447.2
22027.3
22495.8
22266.6
21669.6
21859.2
21683.2
20224
20405.5
20778.7
22016.7
22648.1
22717.8
18622.2
20062.7
21486.9
23311.9
22717.5
23457.2
22628.3
23739.6
21555.7
23052.6
23432.3
22390.9
22886.8
22265.4
21734.6
21589.1
23084.8
21250.5
21741
22503.8
21926.8
21025.2
21302.5
23487.2
22320.1
21255.9
21426.8
21587.5
21513.7
23350.6
22780.8
22140.8
22051.3
21631.4
22424.5
21096.6
22148
20393.1
20994.4
21380.4
20144.6
20961.1
23587.8
23920.9
24469.2
22469.8
22708.7
22293.9
22270.1
22152.8
19817
21776.3
24246.8
24106.3
23360.3
22916.3
21758.2
21398.8
24209.4
23763.2
22684.6
22309.2
21333.2
22553.6
23157.6
22408.4
20071.2
20961.9
21840.1
19272.7
21078.8
22418.9
22408.9
19747.3
18256.3
18336.8
18548.9
18020.1
23340
22171.8
21181.2
22417.3
23261
21720.5
21355.2
21271.3
21592.1
19980.6
19343.7
21344.4
22302.8
22899.3
23053.9
24033.1
21188.7
23161.9
23324.2
24400.3
17971.9
18775.7
18355.1
17783
18630
19257.8
19670.8
19462.8
20283
21915.8
20672.3
21771.2
21279.1
19366.5
20491.5
21041.1
18813.6
19657
19714.4
19870
18988.4
19117.5
19542.1
20106.6
20026.4
20523.4
19485.4
19410.7
21353
19992.6
19889.3
19919.1
20299.2
19751.9
27403.5
26717.2
25865.5
23139.3
23727.9
22807.3
21884.5
21111.7
20365.1
23706.7
24312.5
25830.8
26188.2
25169.8
24883.6
22798.2
27042.2
27254
25291.2
23257
26110.6
20803.6
24028.2
24350.7
20783.3
19729.7
22951.3
20687.1
18191.1
21876.8
15129.1
21731.6
12426.5
19481
21345.2
19834
17014.2
22157.7
19848.1
23270.6
22891.4
17964.4
22878.1
20665.5
22544.6
21677.8
20907.1
42965.9
51440.1
51727.4
46112.2
33417.4
25574.3
35969
50234
41469.7
29870.4
35388.9
46836.5
40731.3
53336.8
50521
42465.9
22044.4
22028.3
19423.8
24005.7
23151.2
22582.9
19452.4
27568
23385.9
24329.2
25085.1
24016.8
25749.5
22209.3
23122.1
27345.9
29828.8
32721.7
21033.4
24188.8
29559.8
23770.7
23816
26222
29916.8
29456
28794.5
23167.7
33396.8
31524.7
30554
32654.8
27616.2
29057.8
32594.9
30242.5
31264.4
31985.1
30662.1
29319.8
29623
33278.7
35019.6
33015.8
32368.1
26356.1
30075.4
30034.9
35053.3
34657.3
32569.2
28988.3
29042
29867.3
35737.3
31647.3
31678.6
28452
29735.6
32293.6
33103.4
26524.1
28587.5
30228.3
30145.3
26838.5
30640.6
28776
30665.3
27097.4
30324.8
29699.1
27718.1
30659.7
30580.1
29491.9
27551
30208.5
28427
26552.7
27860.6
31458.6
30995.6
27054.8
27795.4
27633.8
27019.7
27258.9
26846.4
28057.9
27090.2
28078
29270.3
28685.2
28241.5
23234.7
28828.8
23847.5
27351.4
29088.8
26591.6
28646.7
28266.4
29096.8
25804.4
28152
27591.4
25666.1
28313
26065.1
27726
25689.5
26017.5
25626.4
28990.2
27327.2
26733.2
27181.5
28129.2
25007.1
26835.1
25536.1
24475
25728.8
26868
25957.3
27867.2
27204.3
28887.9
29886.1
26696.7
29615
28142.4
26481.1
26245.2
27259
26754.2
28131.8
31218.6
29206.7
21801.7
22778.4
29392.7
30520.5
27365.8
26728.1
23174.4
21475.4
26551.5
25940.8
13215.5
15929.6
17452.1
15662.2
21399.1
21334.5
21420.5
22221.6
22721.5
21660.8
21463.8
15512.7
21353.4
19819.6
22590
21505.7
22779.7
21346.2
23566
20795.8
19071.3
23490.9
23688.7
20144.2
23802.5
19554.9
23456.5
22788.4
21319.7
17198.4
21176.7
23655.7
24412.9
26506.1
26106.4
25774.1
23773.9
22619.4
26740.2
26353.1
24610
22704.6
23522.7
25273.4
26995.4
22293
23141.6
17794.1
16120.2
16565.9
17795.3
17497
18371.3
16539
17187.8
22211.4
20760.4
15963.7
16079.9
22190.7
15488.8
19687.4
16678.7
21456.5
20580.2
22193.3
21381.9
17736.9
19681.8
20908.7
20431.4
21809.5
22599.8
14871
19069.2
18039.9
18521.9
21352
20908.6
20569.5
21158.7
20490.1
20037.5
19295.9
20980.6
19987.6
23032.6
25001.9
23312.9
24449.6
23031
23118.5
21891.2
24941.7
21023.8
24384.2
21586.6
23904.4
24229.3
22841.5
24265.6
23083.2
24090.9
23983
24347
21472.5
21550.1
23228.4
21193.8
21666
20768.9
21089.8
20102.9
20704
20824.7
20750.6
19780.4
20593.5
21579.9
20941
21984.4
21441.2
20767.8
21669.6
21716.9
20916.6
22642.2
21011.1
20856.5
21095.7
22249.3
22066.5
22732.9
20751.9
21413.6
22123.7
20835.3
21825.3
21495.1
21973.3
20127.7
23242.5
22892.5
21122.9
22096.2
20973
23501.9
21608.5
21386
19558.2
21912.4
20782.1
20655.8
20927.5
21602
21851.8
21501.7
21724.5
20706.8
21206.2
21567.7
20671.5
20844.2
20384.5
20699.8
21750.9
21399.5
22161.7
21861.5
20665.3
20855.7
21968.7
21511.6
22128.8
20798.6
21593
19412.7
22264
21854.2
21841.2
20540.6
19843.9
21736.6
22192.4
22351.2
21328.9
20176
19893.6
20661.6
23007.9
22341.4
22929.8
21632.1
22890.5
23143.3
20439.1
19379.2
21725.2
22509.7
19922.6
23046.4
21111.7
22369.5
20925.6
21618.7
20078.1
20339.4
20846.7
20334.4
20432.8
20764.9
19763
20565
20913.1
20592.3
20844.1
20195.5
19901.2
21996.2
22165.4
22567.3
21966.8
22775.2
21024.2
22903.3
21709.7
21771.4
21807.7
21974.7
21646
21944.8
22297.7
21650.2
22220.6
20387.7
21644.8
21433
22020.9
21319.9
22174.2
19900.2
21731.3
21369.1
20962.7
20620.3
21973.3
21379.4
21797.8
21226.2
21237.4
21404.6
21685.8
21915.7
21129
20002.3
20373
19286.6
19559.1
20263.2
20738.4
20792.2
21510.2
21501.9
21546.8
21060.1
21259
22785.3
21604.1
20677
20599.4
20149.6
20580
21749
21571.5
21674.5
23292.3
19942.1
23597
23065.4
21793.3
23902.2
23356.4
22341.1
23674.7
23080.7
21513.1
23094.6
21427.5
21511.9
21301.1
22872.3
21709.2
21879
21714.1
22134.4
21823.2
21172.8
21614
21717.3
22684.3
22362.8
20834.2
19568.2
22445.5
19923.9
19260.6
21544.5
21000.1
20496.2
23380.4
20129.2
21077.7
21745.6
20099
21100.3
19339.2
19608.8
21790.1
20533.3
19254.5
23224.4
18796.5
20901.8
20365.1
21079.4
22900.9
20808.1
20442.3
19393.1
18488.8
21729.7
24033.3
19694.7
20652.4
19474.7
22086.6
22363.6
19414.2
19115.8
20602
21242.2
19696.2
21799.9
22718.2
22089.8
22884.1
21795.1
23687.7
23377.9
23418.8
22080.1
23042.3
22930
22899.4
20923
21993.9
22530.3
20843.7
22862.9
22182.5
24171.7
25434
20724
24463.1
22229.7
23554.5
24290.2
21186.4
22165.8
23198.8
21328
21611.2
22135.5
20511.4
21634.6
17995.8
21699.7
22648.2
19554
20706
22338.7
21259.7
19542.5
21154.7
22769.3
21490
20984.3
21129.1
21644.2
20629.9
21133.8
23019.9
20958.4
20274.7
21860.7
20937.5
20450
21070.7
23275.4
23119.9
22133.8
23120.9
22515.6
20558.7
20412
24112
20908.6
19320.6
23650.6
19861.9
20070.1
22102.2
22087
20149.1
22881.4
20655.9
21001.2
24064.1
22291.3
21769.5
22141.9
22805.8
22730.5
20944.6
22471.6
20840.1
23812.9
21453.5
22467.8
23469.7
21255.3
21310.8
22912.6
21266.3
20937.8
21972.7
23489.3
18622.8
19997.2
21784
18085
23316.8
22323.9
21873.8
20022.6
19120.5
19908.1
20064.3
18303.7
23292.9
22417.8
21611.9
20240.9
21792.4
20182.9
19838.2
20083.9
19780.1
21573.1
18973.4
20769.6
21737.8
20483.5
21533.3
20696.1
21049.1
20926.9
20731.8
22789.7
20863.2
22832.5
21367.4
21343.3
20803.8
20623.6
20638.2
20511.5
20649.8
21810.6
22123.8
21027.8
17815.1
18800.7
19062.2
20588.4
20740.2
18641.2
20783.8
21450.7
23661.5
18976.1
18744.3
19466.2
20259.5
21385.7
23173.7
22761.2
20023.5
23777.9
21298.7
22396.4
23157.9
22827.1
22955.5
23851.3
23301.9
21297.2
23825.2
22069.2
23075.2
22018.9
23909.7
21309.9
21279.6
23194.9
21340.9
20907.1
21235.4
22278.9
22285.9
22236.8
21742.4
21278.6
22313.5
21203.5
22348.2
23060.4
22752.6
21920
22779
23008.7
19407.2
18983.1
19434.6
21708.8
22357.1
19062.6
19774.7
22359.9
19802.6
21085.7
19488.8
21358.4
20172.4
21858.9
18264.7
21362.8
21423.5
20999.5
20806.6
21418.5
21303.1
19439.5
20626.6
18929
20936.1
20569.7
18962.1
19737.8
19694.4
20729.3
20854.4
19827.7
20692.5
20212.2
20180.8
19384
20254.4
19513
19645.9
19583.1
19551.1
20762.4
21840.9
20048.6
22276.2
21922
21176.2
21486
21291.1
21983.8
21000.6
20070.9
19473.3
19853.5
17763.4
18212.7
18533.7
19423.8
20697.4
22202.8
23000.8
20475.7
22872.2
21322.3
23239.9
22695.8
22347.4
21916.5
22421.9
21924.7
19132
21382.3
22474.2
21793.9
21780.9
19747.6
23820.5
22007.8
20883
19909.5
22603
23253.5
21111.2
20504
22227.6
23299.7
23005.9
21168.4
20560.2
22650.7
22060.3
23021.6
22637.7
20427.3
24388.2
22447.7
20267.6
21035.5
18660.6
23743.3
22048.7
19455.9
22236
19592.2
22900.2
19523.3
20262.1
20322.6
23127.4
21146.2
19585.3
22833.6
21774.7
23723.4
23494.4