# vtk DataFile Version 3.0
Happy Go Lucky
ASCII
DATASET POLYDATA
POINTS 14290 float
-0.605372 -0.245797 -0.696348
-0.636177 -0.241818 -0.708581
-0.608617 -0.228971 -0.719533
-0.632095 -0.214075 -0.725874
-0.650741 -0.211048 -0.701797
-0.609706 -0.210367 -0.733497
-0.589601 -0.216732 -0.697961
-0.593302 -0.212334 -0.72391
-0.593119 -0.196184 -0.740113
-0.580948 -0.193732 -0.717317
-0.632809 -0.137275 -0.735119
-0.615608 -0.129587 -0.754188
-0.643907 -0.117441 -0.718481
-0.59739 -0.122748 -0.764768
-0.59667 -0.171749 -0.75307
-0.646414 -0.166843 -0.708613
-0.636462 -0.163762 -0.728324
-0.619374 -0.156528 -0.748728
-0.642911 -0.187855 -0.717865
-0.621482 -0.187556 -0.740322
-0.597534 -0.14493 -0.760646
-0.644729 -0.144908 -0.712789
-0.6292 -0.110418 -0.742944
-0.609714 -0.104317 -0.762165
-0.660881 -0.0933873 -0.696826
-0.642029 -0.0892243 -0.728781
-0.575366 -0.174897 -0.737194
-0.575236 -0.166754 -0.711555
-0.573929 -0.15403 -0.755549
-0.57027 -0.148604 -0.730889
-0.572791 -0.139141 -0.706966
-0.567729 -0.133102 -0.746781
-0.577296 -0.129562 -0.765672
-0.569067 -0.121771 -0.727483
-0.573396 -0.11072 -0.702731
-0.566637 -0.109811 -0.751116
-0.584106 -0.10409 -0.771595
-0.571287 -0.0896523 -0.726969
-0.703505 -0.00572971 -0.700275
-0.666735 -0.0369981 -0.717777
-0.688676 -0.0307856 -0.698717
-0.623341 -0.0264296 -0.759878
-0.598685 -0.0742647 -0.771279
-0.595993 -0.0227466 -0.703633
-0.603767 -0.00236822 -0.713833
-0.622124 -0.00106904 -0.757714
-0.663698 0.00397372 -0.742079
-0.624728 -0.0833183 -0.752348
-0.660273 -0.019652 -0.733455
-0.644316 -0.011732 -0.749811
-0.596935 -0.0107207 -0.758631
-0.680085 -0.00882589 -0.718787
-0.638335 -0.0662579 -0.740767
-0.654515 -0.0638642 -0.720248
-0.674079 -0.0573039 -0.697015
-0.623331 -0.0549281 -0.758574
-0.645294 -0.0403529 -0.741057
-0.598372 -0.0395292 -0.76901
-0.567994 -0.0808227 -0.758732
-0.577618 -0.0321118 -0.748084
-0.576036 -0.0634839 -0.714032
-0.572559 -0.0592772 -0.738319
-0.574372 -0.0541304 -0.764384
-0.590188 -0.0147422 -0.729241
-0.581348 -0.0393027 -0.719925
-0.57649 -0.0816576 -0.696269
-0.707279 0.0173584 -0.724316
-0.597772 0.0126597 -0.741746
-0.635343 0.0211711 -0.754385
-0.675971 0.0254663 -0.723081
-0.615485 0.0261192 -0.711157
-0.652134 0.0310582 -0.729344
-0.655055 0.0319268 -0.701889
-0.681943 0.036039 -0.696045
-0.688224 -0.299048 -0.599112
-0.640811 -0.294192 -0.655801
-0.620524 -0.292066 -0.615622
-0.682834 -0.326503 -0.59726
-0.656646 -0.323389 -0.619783
-0.63122 -0.313363 -0.605289
-0.635669 -0.306919 -0.632158
-0.680383 -0.304644 -0.62022
-0.662207 -0.303912 -0.64177
-0.664449 -0.281483 -0.658174
-0.682844 -0.280264 -0.610478
-0.620731 -0.279917 -0.666069
-0.678509 -0.216267 -0.619725
-0.61008 -0.270303 -0.623265
-0.610934 -0.275344 -0.598848
-0.684343 -0.198205 -0.605042
-0.677777 -0.19668 -0.625187
-0.662354 -0.20335 -0.670007
-0.645553 -0.27688 -0.675704
-0.672016 -0.211711 -0.641864
-0.683784 -0.218556 -0.600773
-0.667492 -0.233702 -0.658563
-0.674761 -0.235894 -0.633685
-0.680683 -0.236907 -0.610783
-0.625515 -0.265686 -0.689615
-0.606542 -0.258346 -0.671248
-0.648865 -0.258067 -0.690031
-0.678456 -0.258504 -0.622766
-0.663522 -0.258216 -0.671626
-0.620588 -0.286842 -0.640551
-0.67249 -0.258269 -0.647271
-0.683761 -0.257706 -0.598814
-0.6009 -0.251863 -0.606186
-0.60054 -0.247023 -0.65332
-0.609114 -0.265625 -0.647597
-0.600501 -0.248082 -0.631858
-0.658588 -0.234765 -0.685597
-0.595323 -0.234051 -0.671359
-0.677137 -0.281684 -0.634994
-0.593186 -0.227661 -0.645502
-0.587217 -0.207212 -0.636884
-0.591558 -0.224445 -0.616647
-0.586024 -0.204424 -0.664113
-0.585553 -0.194714 -0.61718
-0.732809 -0.0915692 -0.595744
-0.714356 -0.0960181 -0.613566
-0.696797 -0.103952 -0.633087
-0.700874 -0.119403 -0.61384
-0.695693 -0.156174 -0.597167
-0.672563 -0.184311 -0.643062
-0.67743 -0.155336 -0.63855
-0.664065 -0.165449 -0.666771
-0.654657 -0.128416 -0.694758
-0.683743 -0.1731 -0.615886
-0.686159 -0.128622 -0.634926
-0.66185 -0.140841 -0.676654
-0.690776 -0.144238 -0.615448
-0.676245 -0.0976792 -0.670004
-0.606262 -0.0944723 -0.598413
-0.596954 -0.0944987 -0.623453
-0.691601 -0.0884488 -0.652792
-0.681059 -0.112432 -0.653245
-0.667367 -0.118471 -0.674476
-0.653688 -0.154853 -0.69172
-0.672264 -0.136773 -0.657047
-0.653388 -0.181781 -0.692711
-0.581552 -0.162295 -0.646027
-0.583044 -0.164816 -0.62062
-0.577671 -0.102559 -0.675915
-0.579754 -0.122318 -0.656886
-0.585691 -0.116881 -0.631464
-0.583255 -0.184468 -0.641685
-0.593517 -0.113127 -0.606913
-0.575632 -0.12983 -0.682156
-0.580763 -0.185609 -0.690444
-0.584936 -0.136232 -0.613031
-0.581763 -0.141523 -0.638714
-0.579325 -0.147709 -0.662906
-0.576698 -0.15718 -0.686646
-0.586332 -0.0970246 -0.649375
-0.581169 -0.173557 -0.665408
-0.760194 -0.0370345 -0.638587
-0.740634 -0.034133 -0.653413
-0.71952 -0.0404261 -0.662513
-0.782918 -0.0354418 -0.616737
-0.7113 -0.0245983 -0.682555
-0.696376 -0.0478369 -0.677722
-0.731801 -0.0541991 -0.638625
-0.757422 -0.0565969 -0.618101
-0.733737 -0.0188182 -0.669601
-0.779163 -0.0585919 -0.598334
-0.704934 -0.0632577 -0.655738
-0.757378 -0.0149542 -0.655849
-0.768126 -0.0113703 -0.595592
-0.77368 -0.00857943 -0.629968
-0.723683 0.00196305 -0.684494
-0.732888 -0.0741939 -0.615111
-0.717059 0.00210661 -0.608079
-0.711383 -0.0791611 -0.634009
-0.754637 -0.075297 -0.597415
-0.607333 -0.0272231 -0.67933
-0.623226 -0.0265535 -0.655108
-0.643433 -0.0231427 -0.634388
-0.665941 -0.017611 -0.618803
-0.624452 -0.0113523 -0.673476
-0.690858 -0.0088187 -0.609875
-0.660312 -0.00757201 -0.63865
-0.6338 -0.0574716 -0.599116
-0.603048 -0.0492692 -0.659939
-0.621891 -0.0470858 -0.629524
-0.613887 -0.0061221 -0.693297
-0.644937 -0.00465461 -0.658576
-0.680248 1.0628e-05 -0.63129
-0.612992 -0.0738944 -0.612792
-0.682896 -0.0741863 -0.674721
-0.600618 -0.0727914 -0.640679
-0.648639 -0.035958 -0.609444
-0.58724 -0.0752739 -0.668819
-0.587398 -0.050199 -0.690869
-0.753022 0.0125269 -0.606225
-0.765132 0.0127207 -0.642023
-0.697461 0.0144353 -0.610234
-0.754179 0.0152811 -0.67365
-0.696745 0.021469 -0.645854
-0.725957 0.0224266 -0.635224
-0.707501 0.0242767 -0.692342
-0.717121 0.030096 -0.668174
-0.622501 0.0129523 -0.674963
-0.657339 0.017984 -0.639083
-0.66169 0.0232886 -0.675926
-0.689342 0.0324503 -0.670894
-0.208535 -1.68839 -0.529307
-0.176464 -1.68932 -0.496586
-0.128561 -1.69013 -0.512269
-0.0333837 -1.69717 -0.513313
-0.0798228 -1.68852 -0.526064
-0.0784745 -1.69639 -0.499586
-0.398241 -1.68815 -0.500895
-0.30143 -1.68762 -0.536195
-0.338473 -1.68785 -0.500204
-0.232024 -1.68765 -0.497763
-0.267312 -1.68836 -0.500944
-0.245972 -1.68788 -0.548802
-0.12106 -1.68751 -0.550127
-0.172513 -1.68791 -0.541635
-0.0290079 -1.68811 -0.544895
0.0503685 -1.68689 -0.512562
0.0936459 -1.68641 -0.502241
0.0220485 -1.6881 -0.524067
0.140256 -1.68797 -0.503184
-0.0332739 -1.49674 -0.499309
0.0166966 -1.5348 -0.500694
0.0585603 -1.49828 -0.502029
0.00579481 -1.50454 -0.507102
-0.0949555 -1.40508 -0.504737
-0.00499538 -1.41941 -0.517765
-0.035328 -1.42978 -0.516077
-0.0696845 -1.43136 -0.501885
-0.0529085 -1.40076 -0.526717
-0.0189012 -1.3919 -0.521248
0.010321 -1.44288 -0.507703
0.0110631 -1.47962 -0.500213
0.0291404 -1.41194 -0.509394
0.0350575 -1.45166 -0.499116
0.061781 -1.46543 -0.49781
0.138583 -1.48535 -0.498281
-0.117741 -1.28885 -0.497292
-0.106647 -1.33021 -0.521933
-0.111406 -1.36346 -0.510726
-0.098066 -1.29554 -0.51629
-0.131485 -1.3238 -0.497607
0.00278701 -1.3205 -0.523977
-0.0836254 -1.37877 -0.527218
-0.0671533 -1.34916 -0.534939
-0.0637569 -1.31569 -0.53441
-0.0305092 -1.33364 -0.523891
0.0482103 -1.31707 -0.515854
0.0887703 -1.3083 -0.509432
0.0192351 -1.349 -0.523294
0.097588 -1.38159 -0.504313
0.0785796 -1.32825 -0.517066
0.0531965 -1.3551 -0.52318
0.0271099 -1.30884 -0.517336
0.066618 -1.38645 -0.511389
0.114476 -1.35158 -0.513061
0.128202 -1.32617 -0.507337
-0.120363 -1.19204 -0.502114
-0.158704 -1.21391 -0.501189
-0.121766 -1.22268 -0.506128
-0.0471913 -1.22005 -0.526798
-0.067903 -1.20472 -0.505238
-0.0215218 -1.28211 -0.524353
-0.0537362 -1.27653 -0.532477
-0.0473645 -1.24687 -0.535905
-0.0230133 -1.21242 -0.527112
-0.0873342 -1.22981 -0.516407
-0.0886826 -1.25042 -0.517378
0.00492643 -1.20416 -0.527482
0.0269532 -1.26864 -0.508231
0.0761131 -1.23687 -0.521521
0.00804981 -1.24187 -0.524771
0.0400006 -1.21919 -0.529318
0.0935462 -1.19908 -0.532551
0.0977546 -1.28793 -0.503693
0.044776 -1.25233 -0.51335
0.125913 -1.26003 -0.504804
0.195089 -1.21536 -0.500505
0.16725 -1.20096 -0.505302
0.167537 -1.21286 -0.500331
0.132908 -1.28002 -0.505773
0.109902 -1.23094 -0.509879
0.161227 -1.27527 -0.49895
0.225473 -1.21808 -0.496093
-0.0978621 -1.11753 -0.495215
-0.100779 -1.16031 -0.496824
-0.068618 -1.15762 -0.49817
-0.00981405 -1.13026 -0.498956
-0.0668413 -1.1027 -0.498021
-0.0238812 -1.18117 -0.514834
-0.0192558 -1.16013 -0.511803
-0.0409502 -1.12108 -0.495245
0.0375871 -1.18362 -0.509649
0.0819672 -1.14738 -0.520291
0.0740711 -1.11828 -0.507271
0.104971 -1.14987 -0.513035
0.0137267 -1.13567 -0.5005
0.0421254 -1.12076 -0.499031
0.0100088 -1.16587 -0.515676
0.0652048 -1.18499 -0.527603
0.151245 -1.16833 -0.49719
0.120059 -1.16486 -0.497186
0.180873 -1.16842 -0.496087
-0.712213 -0.359472 -0.502762
-0.703679 -0.357424 -0.527681
-0.704647 -0.307888 -0.522259
-0.699708 -0.305161 -0.549866
-0.696665 -0.330854 -0.567583
-0.711108 -0.333985 -0.513497
-0.705101 -0.332221 -0.539852
-0.66961 -0.346733 -0.572084
-0.639816 -0.338974 -0.560591
-0.659317 -0.356027 -0.544955
-0.634002 -0.344619 -0.502156
-0.688989 -0.354704 -0.550699
-0.64747 -0.334218 -0.591268
-0.653259 -0.360366 -0.517629
-0.62091 -0.322314 -0.513336
-0.623804 -0.317716 -0.542005
-0.625416 -0.311535 -0.574114
-0.605687 -0.304033 -0.495881
-0.693865 -0.303445 -0.577465
-0.609902 -0.298341 -0.522566
-0.620054 -0.295278 -0.59367
-0.612293 -0.291749 -0.549688
-0.694193 -0.372518 -0.512796
-0.672521 -0.373065 -0.504049
-0.636572 -0.341652 -0.530661
-0.678359 -0.367201 -0.528259
-0.715899 -0.191706 -0.51278
[...]
POINT_DATA 14290
SCALARS scalar float
LOOKUP_TABLE default
21278.4
20090.2
20870.8
20681.4
20198.8
22021.9
21777.6
21973.2
22250.4
22965
23654
25068.2
20858.4
25037.4
23509.7
23034.9
23718.9
24204.9
22147.8
22839.3
25252.3
23081.3
22541.4
23477.9
18436.7
19473.3
23133.7
24272.2
22745.3
25400.3
23934.2
24609.9
23026.9
24636.9
21716.4
22834.8
21253.3
22167.6
21310.1
20296.7
20631.8
21272.4
19764.1
21642.1
21460.1
19381
19040.8
21506.7
21487.7
21078.5
18778.9
21296.2
20497.3
18798.9
18630.8
21055
21455.6
19111.7
19300.8
19641.6
20441.2
21105
17690.3
21661.7
21463.3
19362.6
22310.1
21405.2
21933.5
30529.6
23809
27822.2
31469.1
32605.6
23073.1
23910.6
24915.2
18941.4
19624.2
21762.1
23063.5
22159
22275.8
23904.1
25726.4
23962.8
25282.5
25593.1
23876.8
24057.4
23446.3
19700.3
23503.7
22844.4
25400.2
23214.5
25519.9
26333.7
21957.9
24119.3
21770.4
26630.2
23364
25642.8
25508.1
25944.2
23374.9
24750.8
26112
24562.4
21019.7
22777.7
24911
23053.9
22252.6
22664.4
21457.7
22647
23584.6
23087.1
22679.6
23296
21694.9
21047.1
21502.5
20627.2
21638.5
22309.9
22682.2
22124.4
22378.1
20768.7
23255.6
21790.9
21377.3
22382.3
21659.9
22405.4
22159.8
20985.6
23031
23062.9
20185.6
22233.4
22841.1
22390.9
23737.9
22141.9
22270.6
23468.9
23316.3
22961.6
22885.2
20576.3
22295.6
20033.4
21242.8
21607
18482.1
21657
20455.8
21244.4
21822.6
21148.4
21917.5
20799
18686.2
21885.5
17426.1
20459.4
22160.3
20680.7
21471.4
23472.3
20328.4
19638.6
20387.3
21680
20886.4
21869.6
21758.8
20189.7
17986.5
18142
21404.4
21121.6
22049.3
20315.1
19575.9
18685.3
20153.1
18440.7
19268.1
22084.4
21234.9
24344
20282.2
32009.4
27603.2
32377.3
30062.7
23967.2
24700.8
32852
33135.5
11918.8
18742.7
17489.8
13514.9
14191.4
17326.9
4433.83
5059.2
7702.69
11137
9598.07
5251.97
5486.91
6576.34
5712.76
8142.4
9388.28
7121.98
8261.26
9776.83
9953.97
11465.7
10428.4
9164.12
11273.7
10216.1
9483.01
9693.11
9604.55
12120.1
11031.4
11521.1
13005.1
13105.9
9875.62
9561.42
9767.55
8995.91
9752.37
10047.5
10056.4
9361.54
9048.22
9192.45
8729.09
11575.2
11187.7
10118
9202.11
11396.2
10667.6
10988.7
9953.69
9554.69
10258.6
10798.7
9832.48
10560.2
11645.7
11013.2
9086.44
9657.68
10515.1
11931
11042.8
10507
11844.1
10057.3
9484.23
10538.5
10757.8
8914.13
10895.6
10218.5
11224.3
11380.4
12494.3
11774.3
11814.4
9759.01
11166.2
10677.1
18946
11437.1
10819.3
18282.5
20349.2
12245.4
13129.8
19237.5
11127.8
12488.9
18361.7
12649.9
17261.8
19663.7
12872.9
10164.3
14310.7
12797.5
14800.3
21802.7
21586.4
20851.4
20558.7
19194.5
22207.9
20929.8
18327.1
18150.9
20102.5
21108.6
19953.7
18206.5
21925.3
19947
18959.6
20128.6
21645.7
21672.1
20326.1
23047
20125.7
22142.4
23243.6
19657.8
22200.9
21675.1
21565.6
20978.7
20717.1
20384.7
21312.5
20354.1
20739.5
21148.4
21314.2
23812.7
21788.5
22278.3
22940.2
25120.4
22956.2
21814.1
24274.2
22139.1
21800.8
22500.5
22814.4
20388.6
22335.9
21511.1
21706.7
21964.7
23712.6
21394.7
24121.5
22864.6
23009.8
19292.9
22497.9
20099.4
20755
21975.3
22563.5
23199.4
19243.9
22034.1
20256
19008.7
20261.8
21571.2
19417.2
21076.3
19794.1
23664.1
23494.2
21325.3
19774.9
19136.7
22722.3
22158.6
23948
21524.7
24298.2
23483.4
24170
22361
24160.9
23080.7
24316
23283.3
24142.7
23951.6
23957.5
24408.8
24010.5
24091
22580.9
23261.6
23402.1
23853.6
21548.9
21395.4
21655.7
21825
25012
24558.9
22902.4
23237.4
21824.3
21099.1
22112.6
21784.6
24022.4
21669.8
21264.7
23951
21345.2
23643.4
21420.6
23035.5
21679.7
25122.4
24897.8
21931.4
23326.6
22456.1
22216.4
21363.2
21741.7
22239.2
21418.4
21956.9
21991.2
21658.9
23414.3
21728.2
22458.7
14716.5
15760.7
16349.9
17262.7
19195.8
16246.1
16035.5
18441.8
17566.7
17748.4
19115.4
14684
19329.7
13758.7
15920
20232.6
15719.4
12980.5
13530.8
14473
18937.6
13531.6
16103.2
19702.9
18675.7
14615.7
15956.5
15112.2
14469.4
14269.4
13193.1
13223.4
17994.8
15024.3
16872.8
18679.7
19652.1
17472.8
17668
18245.4
4559.78
10337.7
6569.47
6852.31
11476.2
10163.3
9429.89
12229.4
11433.3
8292.41
11620.2
11599.6
10411.1
10925.9
10209.5
12248.5
8854.37
9313.2
9672.28
11539
12533.6
11245.6
11520
12299.5
12529
10288.8
12107.5
12004.9
11566.3
11482.9
10876.6
10715.1
11118.1
11066.9
10909.6
11417.3
9946.96
10315.5
11302.9
11270.2
8084.55
10623.5
9441.53
11002.5
11216.9
8940.21
11465.7
10234
11082.9
10790.6
10320.8
11598.5
11952.4
8838.85
9446.94
11062.3
11708.6
9032.13
10167.6
10753.6
9499.1
8761.21
9953.53
9257.48
7661.76
10275.9
9746.42
9631.14
12251.3
6251.99
9581.6
8980.21
7617.59
7819.36
6490.16
12573.8
10769.8
11033.4
11408.8
10012.2
11776.4
10129.5
10839.4
9258.95
11795.7
9248.73
10637.1
9721.78
10754.2
10777.8
10847
10105.6
10096.8
10249.7
12344
9381.46
10266.2
10385.8
10392.2
10825.3
9260.08
10131.9
6683.91
8417.1
6157.04
10464.5
8787.65
7871.27
10485.9
10230.8
9473.05
9805.06
10013.5
10117.2
11056.7
8888.03
8971.34
12125.2
12892.7
11024.8
9867.61
11449.1
12118.8
13031
11234.9
10199.9
8083.04
10531.1
9958.62
11462.4
11345
11519.7
11789.5
12419.6
10093
12483.8
11382.9
9859.65
11179.4
12231.6
12345.9
12513.4
12449.1
12385.6
12453.1
13509.8
13746.5
9373.94
13267.6
12554.4
11804.5
12691.7
12222.1
13065.3
12690.3
12288
12928.4
12568.6
12225
13541.1
8452.43
12158.4
12204.7
11635.2
12562.5
10918.7
10274.2
9119.74
10428.1
11096.3
11883.2
9527.22
11305
11480
9346.1
11968.9
11854.8
11879.9
10540.8
11939
11100.2
10739.3
10580.8
12144.7
11791.5
11390.8
11206.8
10951.2
11177.1
11385.7
10664.3
10934.1
10399.4
11500.4
10318.8
8780.82
11401.1
11215.6
12371.5
9641.55
11105.3
11199.9
11639.9
11949.8
11258.3
10637
12035.7
11910.9
10708
9320.86
10252.4
10246.8
10708.7
10418.7
9401.17
9399.32
9331.05
11115.9
11144.6
8951.37
10397.1
10985.4
9837.32
12380.4
10900.5
11831.2
12703.5
12262.5
12443.1
10231.5
10016.6
13078.1
11161.9
10416.2
11635.7
10824.9
10154.2
8638.78
8408.14
9029.67
10444.1
11046.8
8529.81
8515.69
9588.75
10983
10176.5
10643.1
9256.44
8870.08
8410.56
8776.38
11781.2
11470.3
12011.1
12785.3
9927.64
11284.3
10971.3
11517
10227.8
10854.5
9703.39
11689.4
10302
12392.1
9199.65
9477.74
10998.7
9317.77
8758.26
8672.06
10097.9
11052.9
10970
11740.9
9566.67
8568.72
10697.5
9877.55
12093.4
10111
11123.4
9814.23
10397.1
11635.1
9587.2
10716.1
12313.3
11184
10632.8
10417.7
12463.8
10269.9
8826.98
10453.1
9534.41
8679.72
11257.7
10763.4
10814.5
11338.8
12028.1
10726.9
10871.4
10724.4
11501.1
11313.9
11813.5
10069.2
10862.5
11326.8
10052.7
10949.5
11371.9
16896.5
10762.9
18182
24262
22256.9
14183.8
22566.2
11122.8
12464.7
7994.08
13096.8
15969.1
11844.4
19848.3
17757.2
22179.6
14648.9
21421.4
10548
7174.1
9345.69
10370.2
12708.6
21527.2
16543.9
11501.5
11197.4
23778.4
15619.4
10876.7
16119.3
11331.3
14115.7
21996.5
17576.9
18012.9
17301.8
22187.2
16523.9
23769.8
13823.6
11550.9
12770.8
13410.2
24951.9
23438.4
10442.4
11263.8
17123.1
15512.2
19635.4
25193.1
17521.8
10869.3
22783.4
9269.14
23932.1
10383.8
17194.2
22734.9
20957.8
21974.9
21176.7
21031.4
22721
21160.9
22205.5
23777
21896.6
23417.6
22006.1
22962.3
22331.3
22239.4
22723.5
23043.9
21661
21506.9
20954.7
21557.8
22879.5
20395.9
22791.1
21520
20419.8
21945
23700.4
18155.6
20763.4
17988.3
17289.7
20875.7
20418.2
20453.3
22627.4
23479.8
23697.9
19557.3
21387.6
21360.4
23711.9
23467
25478.8
20734.6
23980.1
23177.1
21826.8
18740.1
20093
21045.8
22268.8
21129.5
21830.2
22336.7
22135
22368.2
22170.7
20789.2
22270.7
21369.9
21602.3
21050.2
20012
21451.2
23420.7
23156.8
22323.4
24731
22888
22449
24747
20683.9
21647.3
22197.4
23258.5
24153.1
21395
22741.2
24613.9
23626.7
22567.5
20423.1
19390.6
20209.2
20120.3
22546
18390.8
19326
20024.1
22000.2
20318.1
18335.4
19487.8
20561.2
21190.9
22208.5
20821.2
22143.6
20644.1
19896.3
19586.2
18052.2
22146.5
19444.9
21794.2
21791.5
17926.9
22777.8
18315.9
19833.5
20287.6
20371
18367.1
17809.7
19503.5
22044.8
21209.2
23330
21582.1
22585.1
19191.6
19873.4
25113.7
21073
24372.8
21295.5
21925.6
23321.8
24918.7
20804.8
20622.7
21012.5
20527.8
18985.6
22774.8
23086.7
22489.6
24640.3
23399.5
21560.1
23535.6
22879.4
23110.4
22908.5
23905
21424.3
21896
23697.3
22794.8
20760.8
23074.3
22990.6
19878.2
22099
20920.3
21612.1
22818
22033.7
20603.8
20331.7
18589.5
19905
20385
21726
21099.5
19687.5
20593.7
19265
21221.6
22228.2
21845
21998.7
22682.2
16663.9
14381.6
17582.7
15243.2
14851.9
13477.2
17234.8
14613.3
15937.7
17216.5
16728.7
18138.8
16934
19512.4
18117.2
18608.8
18666.4
17760.5
18036.1
16482.8
16329.5
17797
17875.8
14570.6
17795.1
15449.1
15965.2
16444.5
16271.1
14654
15282.8
14907.2
13632.9
14430
15510.8
14801.3
14806
15709.6
14549.7
14569.7
15038
15774.8
17041.6
19471.5
18447.2
18686.1
17146.3
17496.1
16787
13791.1
20219.7
20918.3
17140.3
19497.2
7103.37
8180.82
9919.23
9298.22
11618.6
10648.1
11403
11820.8
10417.8
12007.1
12549.4
12330.7
12075
12296.2
12581.4
9809.08
11739.6
12168.3
10289
12637.1
9411.02
8969.85
6608.93
10150.1
12830.6
10919.6
11919.2
10217.2
11080.4
11865.3
12733.9
11914.2
11668.1
7575.11
8958.71
9450.27
9427.91
7832.18
9094.82
7838.83
11509.7
10907.3
9146.96
10739.7
9630.5
8961.65
9380.39
10485.5
8049.85
11542.6
12205
12561.4
10819
12155.8
10827.9
7872.63
12641.8
12957.3
11637.6
12138.3
7195.76
12285.6
12219.7
10305.9
10598.4
13327.2
12253.5
9993.47
11483.3
10942.1
11318.5
11141.3
11063.5
11792.8
9364.56
10199.5
10547.2
8915.23
9877.52
11858.3
8058.99
5958.5
9512.13
8375.88
10969.9
11413.8
9183.61
7232.87
11358.2
12172.3
9403.36
8734.16
11239.2
10597.2
12748.9
12498.4
10565.7
13071.7
11984.1
12061.7
14245
12344.4
10837.2
12877
14353.8
13362.5
10051.2
12442.5
13595.5
11777
10353.2
10647.2
11503.5
11222.2
9248.26
10837.4
10010.8
10518.5
9311.69
9417.11
11664
11030.3
13377.6
11743.9
11481.7
11334.2
12056.8
11987.5
12050.3
12757
11318.5
13347.9
11911.4
12178.4
10369.9
12907.2
11687.3
12018.2
11664.2
11518.9
10791.4
11248.7
13016.4
13100.9
10458.2
10674.6
10442
10575.7
12455.9
12851.6
10522.9
10254.3
10161.7
7910.67
9047.72
10128.7
11744
10137.7
9548.33
10658.3
11295.2
11893.8
11171.2
9019.76
7645.96
10203.2
8843.83
11284
11267.8
12402.1
10502.8
12234.7
10902.1
10950.6
13277.4
13597
11199.4
12917.2
8902.59
9369.6
11597.7
9475.98
12504.9
10366.3
11215.4
13479.5
11063.1
12444
12459.3
11646
9688.55
12543.2
11941.6
11227
11467.7
9153.67
8091.79
12239.4
13149
9106.63
13725.2
13823.6
11549.2
12218.4
10822.4
11311.9
9855.01
13215.4
11134.9
9955.55
12164.9
11120.4
12116.1
10498.1
10893
10623.3
9808.71
10775.8
10145.9
9389.34
10675.7
11549.6
11210
11213.5
10751.4
12409.6
11643.6
12832.7
11612.2
13324.6
11309.1
11919.5
11420.4
11019.3
11335.9
11704.2
10938.6
10564.4
11416.4
12505.4
10525.4
11241
13822
10950.1
13640.6
11583.9
15191.1
10991.1
10243.4
15011.3
11239.6
10131.6
10327.4
12157.8
11102.7
11642.1
9613.29
9609.51
9545.04
11381
10072.3
8863.32
8938
10636.2
8798.33
8491.88
11233.3
11747.4
13307.4
11326.1
14576.6
12504.5
11586.8
13337
12439.6
10748.7
10202.2
14133.9
10488.8
13380.3
13419.9
12596.3
12090.6
12417.1
11629.1
9211.59
11631.9
10356.6
10413
10158.8
10592.2
10012.3
11504.4
10713.5
11223.4
8662.18
12116
10398.7
12173
9458.23
12538.6
13413.6
9182.07
13529.1
12334.6
13435
10156.2
11304.4
9418.93
10295.9
10988.8
10125.8
11517.8
12634.9
10592.2
10631
11360.6
9967.43
9530.87
10949.1
10012.4
9303.22
10534
10765
8408.98
10734.2
11300.1
9793.34
10424.9
11221
12131.4
10638.7
10182.2
11089.6
11780
12148
8855.09
11659.2
11337.7
10146.1
9753.58
9498.55
8219.97
9837.25
8119.02
9358.23
10089.7
9208.6
10266.2
10003
9554.11
12452.5
11311.6
10322.8
10595.1
10937.5
10003
11799.8
11235.7
11200.2
10493.7
10067.2
10091.4
9312.89
9147.75
10738.8
9307.32
10261
10562.9
11875.9
9365.05
9887.67
11075.9
11854.5
10939.1
11428.3
16303.7
9998.2
21821.8
14477.3
12796.7
20298.8
12367.6
19057.2
16924.4
12947.2
23220
20806
22151.4
19295.2
16990.9
12803.8
11336.5
9451.38
23540.7
22403.6
14322.2
12581.3
11051.7
19580
23366.7
9074.86
10794.4
20245.6
10659.5
10647.3
10776.4
12605
20407.6
12698.1
24432.9
11331.6
12083.8
11516
10585.2
24362.5
10658.3
12672.9
27420.3
9153.22
25940.3
13048.1
16567
12293.3
24975
25187.3
24672.1
11934.7
21385.7
21886.4
21256.4
12678.9
12158.2
12367.9
14357.2
11105.5
15900.8
22909.6
23365.9
24707.7
22251.9
19134.2
24442.5
21419.9
20619.8
24203.2
21628.1
22093.5
19605.8
20802
20136.5
23091.6
22062.7
24824.6
24186.2
20984.6
25368.7
22354.6
20449.2
22671
21527.9
23840.8
22832
21857.1
23125
25318.9
23802.7
25749.3
22663.7
24142.6
23544.9
23168.8
21759.7
19580.4
22497.2
21424.7
23027.9
21298.2
22009.6
23078.3
19188.3
20436.4
23722.1
22255.1
23904.7
18263.3
21199.9
18985.9
21448
22577.6
21471.2
22369.2
23436.7
21982
22532.7
22914.8
23008.5
22099.9
22587.7
22429.9
24044.7
24505.7
23496.8
24615.6
21949.2
20634.4
21958.6
23324.1
24201.9
23009.1
22195.7
23793.6
23085.9
23299.3
19628.1
23558.7
22246.3
23275.8
21533.6
22674.4
21154.1
25975.4
21996.6
22983.6
25285.1
22461.4
24777.4
24267
22899.1
25120.9
22831
24742.7
24777.5
22736.7
23764.7
26672.9
21426.8
21587.5
23487.2
22320.1
21255.9
21096.7
22148
20393.3
20994.4
21380.5
20144.7
20961.2
22780.8
22140.8
22051.3
21631.4
22424.5
23587.8
23763.2
21758.2
19817.1
21776.3
21513.8
24246.7
24106.4
23360.3
22916.2
21398.9
24209.4
24469.3
22469.7
22708.8
22293.9
22270.1
22152.8
23921
22553.6
23157.5
22309.2
22408.4
22684.6
23350.6
21333.2
19272.5
21078.7
22419
22408.9
19747.2
18256.3
18336.8
18548.8
20071.1
20961.9
21840.1
21188.7
23339.9
23161.9
22171.7
21181.1
22417.3
23261
21720.6
21355.3
21271.3
21592.1
19980.6
19343.7
21344.3
22302.8
22899.3
23053.9
24033
23323.9
24400.1
17782.8
18629.7
19257.8
19670.7
19462.6
20282.7
21915.7
20672.3
21770.9
21279
18020
17972
18775.7
18355
19366.4
20298.9
19750.9
20491.5
21040.9
18813.5
19656.9
19714.4
19869.8
18988.3
19117.5
19542
20106.5
20026
20522.8
19485.2
19410.3
21352.8
19992.5
19888.8
19918.6
25865.3
23138.1
23727.7
22806.9
21883.6
21111.4
20364.4
23706.6
24312.1
25830.6
25169.6
26188.1
24883.5
22798.1
27042
27253.8
25290.9
23256.1
26110.1
27403.4
26717.1
20772.6
19724.6
20801.6
24013
24333.4
20702.9
22940.1
22527.2
21663
20910.3
18195.4
21886
15134.6
21737.1
12434
19489
21357.7
19827.8
17015.9
22868
22150.7
19846.4
23257.9
17962
22859.4
20653.8
42949.7
51369.2
51620.4
46790.8
40706.4
53274.6
50448.9
42347.1
25582
35965.8
33429.4
46092.9
49978.4
41450.6
29873.7
35377.3
16721.7
15750.3
17067.6
15621.6
18185.1
16470
16908.4
16030.1
17870.4
17826.8
17846.5
14044
18403.2
19013.2
17821.2
19964.9
19507.4
19991
18778.3
18253.2
20352.5
19954
20108.7
18490
18210.3
20375.8
18460.9
18553.6
18531.5
18888.3
17565.7
18743.6
19172.6
17809.3
17660.2
18848.8
17948.2
15055.4
16475.3
16059.2
16466.7
15260.1
15260.5
16185.3
16194.5
14929.2
15820
15594.4
14637.6
15637.1
14186.3
14781
14747.4
16184.8
15922.1
15570.8
14935.9
16867
15327.1
15878.6
16056.1
17653.8
17847.2
15527.7
11730.7
14834.6
15417
16876.4
14455.4
14011.1
15122.5
4819.63
6857.23
5831.89
10490.3
9643.42
7139.21
11672.9
13437.9
12336.5
13779.2
13210.9
13132.7
13291.9
13829.7
12854.9
11761.7
11649.9
8998.3
11099.4
11840.6
8639.91
13053.1
11131.1
11432.2
11950.8
11587.8
9463.61
11424
10869.6
6791.36
11541.9
9287.39
12087.9
8780.79
9555.18
7336.24
11636.9
11227.1
10890.3
11120.9
10000.4
13161.8
10889.8
11810.5
10779.5
10563.1
11722.5
8942.18
12756
13757.5
8697.73
7045.53
7880.19
7598.27
9271.76
10289.5
9032.47
9730.19
12909.8
4094.73
6573.71
7803.84
8973.43
11390.9
8340.83
7546.24
10798.4
10265.4
7299.13
10657.8
11752.1
10271.4
8601.51
10197.9
9656.3
8104.34
8875.4
12033.9
8904.75
9586.84
10871.1
12726.8
10469.9
10599.6
10837.7
11425.1
8847.11
12943.1
11349
11710.7
13153.2
11866.2
10565.6
11169.9
11145.2
8123.94
11272.9
12183.3
11024.4
11755.5
11662.2
12287.4
11314.4
11812
10631.8
12946.9
11842.8
10139.6
11523.3
11822.2
12392.2
11884.6
12912.2
12058
12135.6
12159.1
10669
10084
13457
11484.9
12547.6
10658.2
11955.1
8105.92
8509.51
10947.8
11442
9440.12
11026.6
11035.3
11369.7
10885.3
12783.1
10915.2
8542.75
11491.1
11105.3
11324.4
8375.22
10781.8
11218.3
11233.7
11555.1
11729.8
12182.3
12084.5
10984.9
10362.4
11591
11058.6
10494.8
10920.6
11073
11270.2
13344.1
12413.3
12578
11827.1
11464.5
13368.6
12018.9
13443.6
13225.1
10257.9
11910.4
9643.76
11979.4
9270.02
10648.1
11293.9
12279.2
10832.6
10954.5
11529.6
11238.7
11452.6
11144.7
10190.8
11018.4
13341.9
11632.2
11585.2
10683.1
11629.1
8839.12
10380.1
11472.1
11515.4
9002.85
12505.1
10050.6
11529.2
10536.1
10880.1
12567.3
9768.61
11219.1
9738.46
8053.11
9606.33
9127.38
8174.05
11427
9204.37
12714.4
10145.3
12135.2
9422.37
10548.9
10138.8
12087.3
10387.7
9193.01
10759.6
10434.5
11285.2
9498.27
10603.7
10381.7
11424
11081
12187.8
12125.8
12619.1
11862.5
9179.83
11176.7
12606.4
11572.2
10268.3
11024.2
10461.5
10352.7
10862.4
11768.6
11618.5
13596.1
9791.44
12572
10739.4
11851.7
13229.2
9590.07
12252.9
9858.47
11320.4
9989.79
12447.9
11885.6
11511.2
10297.5
11615.1
10918.7
11089.7
12061.6
11720.7
10810
11219.2
10641.8
8111.62
10589.4
10063.9
10085.7
10161.6
9234.8
8002.04
10428.2
8687.12
9056.25
9189.1
10294.4
9145.31
8465.54
8521.14
12304.7
8181.38
8297.94
8885.18
8526.88
9024.14
8229.82
11295.9
12259.5
11345.6
10979.6
10354.3
10875.6
11074.2
8737.94
11383.8
10750.8
10951.2
10637.9
10560.5
10719.5
9356.75
7872.91
9148.49
9347.56
9529.5
8696.16
11714.2
11323.7
9827.23
9792.91
11893
9841.74
9626.79
10419.4
10604.4
9161.93
12312.7
9228.37
9881.09
12640
11940.4
10955.5
9955.49
10062.9
10533.9
8725.1
11253.1
11724.4
8775.49
9452.4
9580.9
11738.6
9063.95
8363.15
10867.6
9236.75
9872.58
11314.5
11074.4
9272.06
10316.4
11053.9
11787.6
11385.3
10606.2
9061.5
12002.2
10331.4
11962.3
10913.5
9706.01
10301.9
11440.8
11961.5
11588.9
10009.6
11524
11859.7
11630.1
7837.12
10714.9
9127.48
11734.9
12181.5
10318.1
9009.54
11187.8
9379.9
11922.6
9293.76
8601.85
12026.9
11098.1
10389.1
11479
12187.4
8935.5
12401
11650.7
9759.37
9365.59
11502.5
8871.21
11242.4
11347.9
10808.2
9039.6
10311
9536.5
10485.3
10431
11594.2
9864.76
11075.5
9424.63
10508.7
10684.7
10136.6
11371.9
10818.6
11823.5
12100.4
11697.6
11953.8
10994.2
12073.4
11570.9
12394.4
9554.12
10711.1
10432.7
10041
20961.3
24600.7
15092.5
22330.2
11861.5
11714
11670.1
11612.2
12243.7
14854.8
22558.3
16584.4
19885.8
12408.6
11818.4
15794.5
18877.5
10537.4
21573.1
17476.4
10323.6
9841.3
10481.9
14430.2
15414.3
12143.1
18773.2
9636.25
10181.5
20059.7
22127.7
15458.6
10564.4
10000.3
20091.7
20837.2
22182
15435
17097.1
10214.1
13928.2
11549.9
18513.5
11337.9
17229.7
15075.6
11105.5
11930.4
12826.2
13139
10330.9
22400.3
18904.6
17048.1
15797.8
25066
25191.9
9395.46
23434.6
15085.8
11339.9
10934.2
12164
11341.4
15734.5
20931.7
15268.8
11299
21112.2
11226.8
11386.3
22429.3
10077
11292.1
15447.1
21298.7
10741.5
9406.9
19045
15802.6
21406.8
13588.5
12252.7
11554
20643.3
21999.6
18600.7
21738.8
18006.1
19098
22266.7
20389.8
23367.8
22682.2
18792.6
24270.5
21583.2
23500.2
24370
24490.7
21999.5
24360
19821.9
20563.7
26583.3
23882
22421.3
23876.5
24552.2
20446.4
20662.2
20836.2
19007.5
21187.1
21591
19238.2
21419.2
23183.9
23496.3
21735
24280.7
22509.8
23554.5
22246.3
25403.2
21578.4
24577.3
22361.7
22403.8
24677
21811.5
22638.2
22033.4
23183.4
23093.6
21601.6
22243.4
22821.8
23434.8
24210.3
22689.2
22834.4
22840.6
22631
22338.9
23548.4
21834.2
21879.7
22478.9
24964.2
22230.5
23337.2
20280.1
19499
23196
23519.3
19466
20636.8
22837
20218.7
21473
19501.7
21819.6
24031.8
20196.7
22366.3
18271.3
22282.5
21053.5
21689
21019.7
21891.3
19550.1
23655.9
20726.6
22162.1
21258.1
21514.1
22276.6
24030.5
19495.9
21364.7
19985.8
20908
20109.4
21213.8
20412.9
21796
21565.3
22473.3
20472.4
20572.3
19861
21096.9
19092.2
19544
21161.7
20577.7
19832.9
19809.3
20435.2
19698.8
19703.8
20978.8
21488.3
21672.7
23322.2
21487.1
22239.7
22288.1
20245.9
22532.9
24030.3
22214
22646.4
19739
21047.4
21900.7
20961.3
19970.3
20084
18017.8
19130.6
22878.7
21337.5
23878.1
23394.2
22008.6
19232
22244.5
22513.8
22042.3
22131.4
24826.8
24268.3
20860.8
23103.5
22230.6
23525.8
22885.1
22824.1
22560.3
21261.5
22458.3
21450.4
24433.7
19980
22461.9
24004.8
22135.4
21166.5
23370.8
21107.1
22831.8
24273
22908.4
19585
22386.2
20603
21577
23433.3
22361
23114.8
23641.9
23427.8
24671.6
22505
21263.2
22532.3
21879.6
19618.9
19631
22409.8
19712.9
23044
20382.3
20556.9
23272.1
21239.1
19709.9
21134.6
18828.7
23853.1
22170.4
20429.1
24151.9